Material ID,Compound,Energy,Hull Distance
mp-754827,O2Te1Tm2,-3.227027240000004,0.0
mp-720869,C4H12N2O9,-1.134311763425926,0.05871664300926017
mp-571465,Br1I1Pb1,-1.1101007366666655,0.03715871875000095
mp-777444,F7Fe2Li3,-2.8338646260416667,0.04356538916668976
mp-762264,Co1Li2O4Si1,-2.4348475524999995,0.0
mp-16927,Ge1Na1O4Tb1,-2.8701834912931035,0.0
mp-761629,Li17O32V16,-2.4447787328717965,0.01747484728201567
mp-767515,As1Gd3O7,-3.0658823790909158,0.035021393863636584
mp-15865,As1F1O4Rb1Sc1,-2.8334243859374997,0.0
mp-1019608,B1Cs3O3,-2.1366486020299678,0.0
mp-554138,F1O5Pr2Sb1,-3.2371323668055556,0.0
mp-756156,O3Rb2Zr1,-2.691412334583333,0.0
mp-772413,Al8O14Si1,-3.353178756630435,0.05626403673914351
mp-2706,F4Sn1,-2.57337835,0.0
mp-703276,Al11Ca5O48Si13Tl1,-3.192347387735042,0.17686406043269878
mp-510490,Gd1S3Sc1,-2.2982046348750003,0.0016043335000642145
mp-542637,B2K2Se7,-0.6137182491761373,0.0
mp-560894,Be3Cl1Li4O12P3,-2.871246941449275,0.0
mp-765725,Li5Mn5Na3O9,-1.8558203876345347,0.0498869273674329
mp-562420,Cl1Cs3O1,-1.6165328680086213,0.0012890012499802595
mp-30927,As4Cs1F13,-2.572817385579502,0.0
mp-10044,As1B1,-0.01896014208333252,0.08030575000000004
mp-757404,Cu2Li2O13Si5,-2.659794526553031,0.0881033115909902
mp-19507,Ba1Mn2O8V2,-2.5505944387201605,0.0
mp-29462,Ga3Na1Te5,-0.7033188919125143,0.0
mp-7534,Cd2K2O3,-1.2872240610714272,0.0
mp-23364,Cl2Cs1Li1,-2.190442167816092,0.0
mp-33857,Cr1O4Sb1,-2.116878859583325,0.0
mp-759812,Li4O24Ti11,-3.2791422182051284,0.03988742405793561
mp-1020193,K1N1O3,-1.4140512073499998,0.0
mp-28623,Ge5Li4O12,-2.029680082936509,0.0
mp-768440,Li3S4V1,-1.2910217578124996,0.0
mp-770842,Co3Li4Mn2O16Sb3,-1.8285834881855496,0.06700905693453814
mp-623058,Ag2P2S11Ti2,-0.8864681532965695,0.002919318811282862
mp-28970,Cl3N1Nd2,-2.3852883477083324,0.0
mp-23562,I1K1O4,-1.1794060130000001,0.0
mp-769263,In1O3Tb1,-2.83131314325,0.0564577691250129
mp-772486,Lu2O7Sb2,-2.8414817710227274,0.08714411493181728
mp-766971,Cr1Li4S4,-1.2610498742592584,0.0608437889682533
mp-23778,C1H4N2O1,-0.7100445082812499,0.0
mp-720212,Al11Na2O48Rb9Si13,-3.0732227920513093,0.11446142499838963
mp-29993,Ag1F6Ta1,-2.9154939021666664,0.0
mp-13019,La2Na1O6Ta1,-3.502169340371265,0.0
mp-541870,Al2H5K1O11P2,-2.4156017436150785,0.005768059961531048
mp-765310,F5Li5Ni2O2,-2.58364990279762,0.03370126785712557
mp-558724,La2S5Si1,-1.908254534882813,0.0
mp-715276,Fe2O3,-1.6219528672499997,0.0
mp-7502,K2O3Sn2,-1.7347976309999962,0.0
mp-567820,As4K6Nb1Tl1,-0.45467062181944523,0.0
mp-14532,Na1O8Ta3,-3.2099568122126434,0.022353250416847697
mp-767644,Li1O4P1V1,-2.4992012168849196,0.009706593512077635
mp-541908,F6K1Sb1,-2.9046076172500004,0.0
mp-4747,Ca2O4Sn1,-2.886775231428571,0.0
mp-559985,Ca1O11P4,-2.783058243191964,0.0
mp-561304,Ag3As2K1S5,-0.540225220215909,0.0
mp-569826,Ge2K2Se5,-0.9495418120798607,0.0
mp-669458,Bi2Cs3I9,-1.2180139317857157,0.0
mp-17418,F7Sm1Sn1,-3.564060678333334,0.0
mp-12843,Cu1S2Y1,-1.6235419701041671,0.0
mp-19379,Co1O4S1,-1.7340267416666666,0.0
mp-772191,O6Te1Tm2,-3.054022323611111,0.0
mp-554145,C1Na3O7P1Sr1,-2.5789985994927047,0.00993933711523399
mp-675638,Pb1Pr2S4,-1.874735397619047,0.02680311892847977
mp-36194,Ba2O4Ti1,-3.239976734047619,0.0
mp-752709,B1H5In1N1O9P2,-1.99610052629386,0.0
mp-763790,Mn1O3P1,-2.4695153178216183,0.32240412843623895
mp-753544,Bi1Li2O3,-1.8219532456944438,0.01781528750003532
mp-571298,C1Si1,-0.20334421131410316,0.0
mp-773133,B2Cu1H3K3O17P4,-2.407025314413492,0.0
mp-18515,Gd1Na1O4Si1,-3.2911906662931036,0.0
mp-772571,Cr1Li4O5,-2.0187120935833334,0.020965191000020766
mp-23799,H1Na1O7P2Zn1,-2.375333700372366,0.017418645652724624
mp-23710,H2Mg1,-0.2631233341666667,0.0
mp-765022,Li1O4P1V1,-2.6327172247619046,0.009706593512077635
mp-3288,Cs1N1O2,-0.9874848380208334,0.0
mp-543039,O3Pb1Te1,-1.5483091393333326,0.0
mp-27717,As2F3S2,-1.5180529900000006,0.07164737142857243
mp-706239,Ca2Mg2Na1O12V3,-2.8552789552025866,0.0
mp-17090,P1S4Sr1Tl1,-1.2174877094047614,0.0
mp-555223,Cs2F5Mn1,-2.980353376217673,0.0
mp-679669,Cl1N2Na1S1Zr2,-1.8757835742395323,0.07665159520522481
mp-554888,I3K1O11U1,-1.6935768733437495,0.0
mp-706809,Ag7Al11Ca2O48Si13,-2.8645762937860075,0.12232624830256908
mp-555096,Pr1S2,-2.010131563263888,0.0
mp-29460,Cl5Pd1Tl3,-1.1956679000000001,0.014934117499998893
mp-769601,F3Li1O4S1V1,-2.434475662333333,0.04749910188331512
mp-554072,C1K2O3,-2.1154253024583327,0.0
mp-768821,B2Bi2Li2O7,-2.2713938741666664,0.054340126988894996
mp-695998,H4K2Zn1,-0.3250840771428563,0.0
mp-510062,Cd1Cs1Se3Sm1,-1.589901297781071,0.0
mp-557211,O2Si1,-3.026910254583334,0.0
mp-756202,Ba2I6Sr1,-2.0361943801851847,0.013791629444444453
mp-722997,Al1Ca1F6H2Na1O1,-3.17149340928161,0.021660621438721606
mp-743698,Ca5Dy3Mn3O24Ti5,-3.346534180386495,0.019901353406120138
mp-23653,C2Cl1Mg1Na3O6,-2.247210059204245,0.0
mp-27272,Ca3I3P1,-1.7053181767346952,0.0
mp-775980,O2Zr1,-3.724694349444445,0.0
mp-753842,O11Y1Zr5,-3.676306111073534,0.13550843505885143
mp-3439,O4P1Sb1,-2.0707661154960326,0.0
mp-31113,Dy3Ga1O6,-3.5957040815,0.0012047717999905672
mp-3051,Ge1Mg2O4,-2.5713674935714272,0.0
mp-23986,Cl1H6Na1O5,-1.184593750792441,0.07616999057680282
mp-541688,Ga1K3Te3,-1.05272555875,0.0
mp-18156,Ba1K1P1Se4,-1.2928705301011902,0.0
mp-10250,Ba1F3Li1,-3.7660923328333338,0.02196860999998478
mp-19323,O4Sm1V1,-3.2682661250000016,0.0
mp-505260,I10Mo3Te10,-0.6097281961594215,0.0
mp-561346,Ge1Na2O5Zr1,-2.6837534798898464,0.00726604069476306
mp-752768,Ag1F4Li1,-1.8436725111111218,0.0
mp-755441,N1O2Sr1Ta1,-2.7475790358333327,0.0
mp-656850,O7Ti2,-1.7204354177314813,0.5020876851388406
mp-571015,Cu1I1P4Se4,-0.37586586129464267,0.0
mp-504607,In1O3Y1,-2.980185456583334,0.004661116666694909
mp-570218,Be1H3Li1,-0.2870824987499996,0.0
mp-766345,F7O4Y5,-4.2847108135937475,0.00041442547489101145
mp-764889,Fe5Li9O12,-1.9124249888461538,0.06778482230769384
mp-7210,B2Cd2O5,-2.2422346480092594,0.0
mp-21532,Ge2La2O7,-2.8399479329545443,0.0
mp-573514,Cs1Sb1,-0.599732107500003,0.0
mp-1285,O2Pt1,-0.9274513191666666,0.0
mp-698060,F2H1O1P1,-2.187551206928571,0.009880939721384508
mp-17912,Rb3Sb1Se3,-1.1553765406473215,0.0
mp-766179,Bi1Li1O8Si3,-2.8045911608333327,0.07540606105781987
mp-3476,O6P2Pb1,-2.223966616355819,0.0
mp-773136,Cu2Li1O4P1,-1.8503530863095232,0.09721506593559304
mp-541487,Pt2Se3Tl1,-0.5280740395312525,0.0
mp-616597,Hg1O4Re1,-1.7550172962500004,0.0
mp-765706,Fe1Li2O4V1,-2.1855528583333337,0.027544506562568127
mp-12642,Ba2Nb1O6Tm1,-3.4938625129166665,0.0
mp-623862,Br13Cu4Rb3Tm2,-1.5352719424431804,0.0
mp-567524,As4Ga3K3,-0.4531439671749986,0.0
mp-17329,Pr1S2,-2.0703809174999996,0.0
mp-561814,B5O8Rb1,-2.6070548432142857,0.0
mp-766310,Ba1Ca2I6,-1.9258612266666668,0.029028926944444047
mp-22235,Cs2Mn1Sn1Te4,-0.8161018950574714,0.0
mp-773139,Li4O16Sb5V3,-2.095685979047619,0.08796738626778453
mp-744747,H4O11P2V2,-2.1544792331202998,0.03422288868429522
mp-6204,Cs2F6Na1Sc1,-3.5640406430689664,0.0
mp-23174,Cl3Re1,-1.133425550416667,0.0
mp-777423,Na6O7Ti2,-2.5412986621484666,0.004382173666534091
mp-773177,As1C1Co1Na3O7,-1.9266382930106107,0.0
mp-6943,B3Ca4Gd1O10,-3.3751146979166657,0.0
mp-752526,Lu2O6Te1,-2.8885004306481474,0.0
mp-777563,Cl7H15N6Ta2,-0.8746111726666669,0.09112390413056405
mp-29245,Br1Cd2P3,-0.4069884083333329,0.006840908124999416
mp-20079,Ca1O3Pb1,-2.1739773697499998,0.0033599544999937335
mp-755621,Ba1N1Nb3O7,-2.8279087993750003,0.06439557708822068
mp-17909,O2Si1,-3.2562245791666666,0.0
mp-553896,F6K3Mo1,-2.843786192625,0.0
mp-6137,Mg4N12P6S1,-1.0552624153532604,0.0
mp-10620,Li1O2Pr1,-3.0263049877083343,0.009743143749980199
mp-19365,Ba3O8V2,-3.0196928330769235,0.0
mp-27726,O2S1,-1.071398687604166,0.0
mp-1013550,Ca3P1Sb1,-1.1491069275952384,0.0
mp-558707,As2K2O9U1,-2.4474371680000004,0.0
mp-4816,Ga1La1S3,-1.7496812870416671,0.0
mp-4408,O7Sm2Zr2,-3.812720558636365,0.036643032869329
mp-707377,H1O4Rb1S1,-1.9293377202678563,0.0
mp-755512,Nb1O7Sm3,-3.5509141231818186,0.0014058730681970712
mp-763057,Co1Mn1O3,-1.3003306856034476,0.026649565041666178
mp-27389,F7K1Sb2,-2.6499473168749987,0.0
mp-740711,B6Br1Cs3H12Se4,-0.6082085664680041,0.0
mp-675710,K2O7U2,-3.3198660274545415,0.0
mp-568965,Ca1N2Si1,-1.4585294637500006,0.0
mp-755004,Cs1In1O2,-1.7351791401077579,0.057100758749972336
mp-560151,Al1O4P1,-3.1089532636111112,0.0
mp-756560,Li2O7Ti3,-3.192929117326388,0.012616016770778652
mp-774547,Er2Ge1O5,-3.2373921500000002,0.0
mp-562072,Cs3O3Sb1,-1.7736444550061583,0.0
mp-756437,Br5La1Sr1,-2.3857253351428533,0.04384125607142764
mp-30528,Cl3Mn1Tl1,-1.4157494697528754,0.0
mp-698627,Fe11O24Ti5,-2.291653830416668,0.027510484365424758
mp-16989,As3K5Sn1,-0.42084378430555547,0.0
mp-568423,Al1I8P1,-0.501092604797617,0.0
mp-763609,Li4Mn5O10,-2.1311521646884457,0.05515519263157911
mp-18566,F7La1Sn1,-3.591210114166668,0.0
mp-676820,O19Tm2Zr8,-3.7667388182614934,0.0
mp-770648,Li8O6Zr1,-2.406860076777778,0.0005859140000206745
mp-1019568,Al2Ca1O6Si1,-3.4115497160000006,0.01644746545951037
mp-560632,Ga1Na1O4Si1,-2.7139546693883423,0.0
mp-557384,B2Mg1O7U1,-3.202921921666666,0.0
mp-546125,As1O4Sc1,-2.481638147916667,0.0
mp-754556,N5Nb3,-0.9742971606250013,0.017166740708502326
mp-760002,Cu2F7Li3,-2.4372141564583334,0.054520033124916566
mp-12944,As1Ho1O4,-2.6548490795833337,0.0
mp-769289,Hg2O5Y2,-2.3984933699537034,0.0897679816666681
mp-13066,Er2O3,-3.9282907663333333,0.0
mp-2184,As2O3,-1.6204668902500003,0.0
mp-42897,F1Na1Nb1O6Pr1Ti1,-3.3665133208986417,0.03548476373015577
mp-559747,La2O9Si1Ti2,-3.6749402056547615,0.0023274856590817755
mp-18240,Cu2S4Sn1Tl2,-0.5322312979629642,0.027495539087302845
mp-554056,B5Br1Ca2O9,-3.0130085858578433,0.0
mp-3792,Al1O3Y1,-3.682925256499999,0.01866936360003706
mp-754113,Cl1O1Tm1,-3.549742866805554,0.0
mp-24595,B5Ca2Cl1H2O10,-2.7706681751666666,0.004138943174929466
mp-18773,O3W1,-2.286097356874997,0.0
mp-694915,Ca1La1Mn1O6Sn1,-2.8019578555431037,0.051651257417231734
mp-550685,Ba2Ca1O6Te1,-2.784338667166666,0.0
mp-556417,F6Ni1Rb2,-2.462107868611111,0.0
mp-15417,Ga1K2P2,-0.5844005956904752,0.0
mp-696683,F8H1K3Sn1,-2.8874686856923075,0.0
mp-558272,Na3O11P3Th1,-2.9722014736425817,0.0008795218048949968
mp-766254,Cu1O3P1,-2.1840172129945055,0.022163300749900118
mp-15795,Dy1Li1Se2,-1.9649048499479136,0.0
mp-570577,Al1N7Si4Sr1,-1.3579802784935895,0.031139446730885714
mp-772573,B3Cr5Li2O13,-2.470817459909419,0.08236252816848585
mp-28891,Li7O6Ta1,-2.4952363282738093,0.03240926595237882
mp-705528,B5Ca1H8Na1O13,-2.217161775704023,0.010362155178751513
mp-673656,Se3Y2,-2.1196192865729158,0.0
mp-16691,Li2O14Sr1Ti6,-3.3905511356159415,0.0
mp-10226,Na1S2Y1,-2.13481260890625,0.0
mp-504966,Ba2Cu1O8Pt1Y2,-2.650761562321428,0.018549948278246933
mp-13740,Ag1As1S2,-0.3617932898958334,0.000900588541666858
mp-561243,Cl1Cu1O2Sr2,-2.5039419536111107,0.0
mp-561396,Cr1F6Li3,-3.169449955833333,0.0
mp-556075,Dy2O4Sr1,-3.6738878146428573,0.004687805357130108
mp-560861,Cs2F6K1Mn1,-2.9867353039491378,0.0
mp-22977,Cl3Cs1V1,-1.915839475499999,0.0
mp-554825,K2O7P2Sn1,-2.5434158109404748,0.0
mp-774374,Fe1Na3O4,-1.4945295469234905,0.0024844852083352187
mp-18941,Co2O4Si1,-2.0806406135714286,0.0
mp-559238,B1Cs1Li2S3,-1.2935898358056233,0.0
mp-755043,Al2O7Si2,-3.3263422773863636,0.019948972272720897
mp-556233,As4Cl1K1O6,-1.728586123520835,0.0
mp-27517,Co1I4Rb2,-1.2248529310714307,0.0
mp-770808,B2Li1O5Sb1,-2.4161354575462965,0.09713112877118688
mp-600000,O2Si1,-3.0272402958333338,0.0
mp-22506,As3Cs6In1,-0.55861563025,0.0
mp-770362,Al2Li3O6V1,-2.796590167083334,0.027243935417285314
mp-755537,Hf1O5Y2,-3.988798379010417,0.0006946740625020098
mp-562057,Be3Ca2Cs2F12,-3.708733537676951,0.0
mp-29216,Cl4Cs2Pt1,-1.5369410135714279,0.0
mp-504922,O4Pb1U1,-2.9647723091666642,0.0
mp-768915,Au1Na3O3,-1.3729714104864534,0.0
mp-14568,Ba1F4Mg1,-3.974564079999999,0.0037843525000121523
mp-775122,La1Li1Nb4O12,-3.1053459029629633,0.08185409895833355
mp-756981,C1K2O7P1Sb1,-2.2637248990952368,0.0
mp-30519,Cl5Pb1Tl3,-1.4002463199999997,0.007015677083336651
mp-5824,Hg2N1O4,-0.742237200714286,0.0
mp-1922,Ru1Se2,-0.5235113602083317,0.0
mp-553901,Cl3H6N3O1Ru1,-0.7883182454464281,0.008104636310810851
mp-1018118,Pd1Sb1Tm1,-0.7049800788888886,0.23151538833326946
mp-542271,H16O20S3Y2,-1.8378334409197155,0.012696632141637635
mp-3531,Ca2O7P2,-3.2109046417424234,0.0
mp-561286,S1Zn1,-1.0624582640625,0.0
mp-12866,O3Sn1Sr1,-2.4890002110000014,0.0
mp-570099,Br3Rb1V1,-1.5989235425000001,0.0
mp-756732,Au1Rb3Sn4,-0.2220474340624996,0.0
mp-645291,As3Cl1O12Pb5,-1.752367134047619,0.0
mp-28279,Cl3Gd2N1,-2.3690614239583354,0.0
mp-775852,C4Li4O16S1Sb2,-1.9147782409567882,0.09531531055309754
mp-1013726,Cd4F6S1,-2.1265725229829555,0.008655684090909494
mp-556066,F1Li1O4Si1Sr2,-3.3651661871296294,0.010915220000191381
mp-38442,Cs1Nd5Se8,-2.0328143097075113,0.03192929437500019
mp-554063,Cl1O3Se1Sm1,-2.4635789255989575,0.0
mp-4867,Al4Ca1O7,-3.461462287291653,0.0
mp-10410,Ba4Cd3S10Sm2,-1.887981135328948,0.013493214276454966
mp-21511,In1K2Na1P2,-0.4161827732030652,0.0
mp-569287,Au1P1Se3Tl1,-0.2609370708606254,0.0026324435416669547
mp-765289,Li1O4P1Sn1,-2.3858878604251688,0.005276800415974289
mp-3488,Na2O7Ti3,-3.16412245869612,0.0002878562500517508
mp-570238,Au7I1P10,-0.16091646757936534,0.0
mp-28007,Ba1Hg1S2,-1.4067862265625002,0.0
mp-12180,Na1S2,-0.7052102397916661,0.0
mp-636654,Bi2La1Nb1O9Ti1,-2.844394724345238,0.039788790733714406
mp-583221,B4Ba7Se13,-1.491992633450522,0.0
mp-767430,C1Cd1Na3O7P1,-2.2663000735952696,0.0
mp-753815,Ca1O4Y2,-3.7422591840476187,0.03968531142859482
mp-675012,Ho2O19Zr8,-3.754830226077586,0.0
mp-559379,Cl1O3Sb1Te1,-1.552598289444444,0.0
mp-4025,Ni1Sb1Tm1,-0.9622721633333366,0.0
mp-19321,Mn1Na6O4,-1.5276505892711592,0.010813950606117763
mp-558133,F6Mn1Rb2,-2.983509100220307,0.0
mp-777479,O2V1,-2.451484394166666,0.0
mp-3427,Al1Li1O2,-3.080731622708333,0.0
mp-27280,Cl4Mn1Na2,-1.8407856870689645,0.010947584925611256
mp-31361,Br1Eu1I1,-2.166477295833335,0.012146576833335901
mp-2072,K1Te1,-1.049811532333333,0.0
mp-558588,Ba1Pt2S3,-1.2304366657291668,0.0
mp-649086,Fe1Ga1O3,-1.9496731737499993,0.021014952999999892
mp-7387,Ag1F4K1,-2.034761413277778,0.0
mp-685982,In2Mg1O4,-2.26588413147619,0.021950002142843976
mp-28518,Br4S1Tl6,-1.0009203411363679,0.0008814172727275734
mp-19197,Ba3Cr1O5,-2.7510254015277784,0.0019646722222128846
mp-559112,K2O7Zn6,-1.7264862944666661,0.012473235333371472
mp-758097,C2H6N4O1,-0.5080146512499991,0.05138285160256801
mp-1019539,B2Ba1O13S3,-2.312348706754386,0.0
mp-695250,Ba1La7Mg5Nb3O24,-3.4645650457500006,0.03929694482634431
mp-607399,Al2Cl8Cr1,-1.571660076060602,0.003239671994948426
mp-755342,Ga1Lu1O3,-3.196144291333333,0.0
mp-23432,Ba1Cl1F1,-3.5306211766666684,0.0
mp-16839,N3Na3W1,-0.6272270723214278,0.0
mp-768125,C1Ge1Na3O7P1,-2.1921754591369838,0.05479195595443706
mp-768355,Ba1F5Y1,-4.306993307261904,0.0001742715711700831
mp-756277,Er3O7Ta1,-3.887998001931818,0.0
mp-15239,Ga5Nd3O12,-2.9062966337500002,0.0
mp-773199,Co2Cs6O7,-1.4523673986666665,0.0
mp-699229,Cl1H1O3Pb3,-1.4800097895312496,0.0003995322330712092
mp-774715,Ba4Li1Nb3O12,-3.2061617824166673,0.0
mp-4782,Ca1F6Sn1,-3.2820017743750007,0.0
mp-625150,H1O2Sc1,-2.8156479621874997,0.0
mp-766031,F1H4Mg1Na1O6S1,-2.0314191960483376,0.007462390206293483
mp-542533,B4Cs1H12Na1O13,-1.8887081795226177,0.009589944436433758
mp-3975,F7K2Ta1,-3.432839237483333,0.0
mp-556645,As1Cl1Nb1O5Rb1,-2.3280506691666667,0.0
mp-1019794,K3Li1O7P2,-2.6696572901437725,0.0
mp-554071,Cu4Na8Nb2S21,-0.9453798715153937,0.0011993502380424357
mp-31358,B1O2Rb1,-2.6201035420833327,0.0
mp-30314,Cl4Cs2Pd1,-1.5744929521428597,0.0
mp-756052,Ca3O7Zr2,-3.514437007500002,0.04674075625000521
mp-28371,K2O4Zn3,-1.7063299271666652,0.0
mp-21644,Ba1Nb8O14,-2.8607137066304347,0.0
mp-554552,H2O9P2Zn3,-2.1602132459635426,0.009086917343762657
mp-677430,La2Li1Na1O12Ti4,-3.4474228389109185,0.031041834124847865
mp-667386,Al5F26Na3Sr4,-3.873259802937841,5.55853253386754e-05
mp-2511,F2Pb1,-2.544664450833333,0.0
mp-723043,H6K2O10Se1Te1,-1.492506594550521,0.0
mp-28369,Cl1Ge1H3,-0.4045507587499991,0.0
mp-567322,K1Sb3Se8Sm2,-1.2472805468571424,0.0
mp-17486,Cu1Ho3S7Si1,-1.8039552118229167,0.0
mp-770523,Cr3Fe3Li4O16V2,-2.1571889540476183,0.07243064613160653
mp-714944,O2V1,-2.339276648333333,0.0
mp-552185,Ag1N1O3,-0.2891612707500002,0.0
mp-765238,F11Li4O1V3,-3.126858525241228,0.031487022646636456
mp-777781,F4Fe1Li2,-2.840434532023809,0.013517847857180243
mp-17829,O6Rh1Sm1Sr3,-2.877285904545454,0.0
mp-15316,F4Mg1Sr1,-3.9689168233333336,0.021782493888916694
mp-10748,Cu3S4Ta1,-0.8696508915625012,0.0
mp-561249,Ba17Er16O57Pt4Zn8,-3.0014985087009793,0.0
mp-754717,Br1O4Rb1,-0.8510328945833331,0.03422119729166292
mp-770493,Fe5Li5O12V2,-2.031034349652778,0.02569390822923741
mp-555940,Dy2O13Te5,-2.192886858708332,0.0
mp-5889,Er2O7Ti2,-3.7804078248106054,0.011758618636372247
mp-18922,Mn5O8,-1.9573437930503974,0.02849208336538184
mp-764744,F5O1V2,-3.1144276753124993,0.0
mp-642535,Cs4S23Sb14,-0.7274459050877832,0.0032432206097575446
mp-676778,Bi1F4K1,-2.7586272155000002,0.04113639875036412
mp-27192,Be2Cs1F5,-3.4730149127694028,0.0
mp-568923,B1Ba2Cl1N2,-1.636076632916667,0.0
mp-23503,Cl6In1Na3,-1.751821308999999,0.0
mp-23926,Cl4H2Hg1K2O1,-1.5816608064500006,0.010522867250161383
mp-29006,O3P2S1,-1.5403241856899814,0.031064050809482897
mp-621926,Na2O5Si1Ti1,-2.911762802482438,0.0
mp-643263,H6Na3O7V1,-1.7478726771120687,0.011186665735365656
mp-557463,Na3O7Sc1Si2,-3.0281903600696287,0.0
mp-773119,As1C1Mn1Na2O7,-1.9865978731824718,0.0
mp-558054,Li2O7Sr1Ta2,-3.2122980357986104,0.0
mp-558336,Ho2O3,-3.928918491666665,0.0
mp-649774,Cu1Pb1S3Sb1,-0.5869010916666652,0.003577600677010443
mp-685043,B1Br1,-0.435008451805555,0.008656909722222383
mp-18722,Cs2Li1Mn1O4,-1.885613323390805,0.0
mp-555939,Li2O5Te2,-1.5939038945370372,0.0
mp-552454,N1O2Sr1Ta1,-2.6994090504666675,0.0
mp-18961,Cr1O3Sc1,-3.1315766632500006,0.03454352825008726
mp-755609,O2Se1Y2,-3.405429712635417,0.0
mp-1019573,Al2Ca1O6Si1,-3.4255247735,0.01644746545951037
mp-754534,Ce1Li2O3,-2.9966765515277722,0.0
mp-760230,Bi5F7O4,-2.3561231185937492,0.027456190937460434
mp-755635,Ho2O7Pt2,-2.289341283181815,0.0
mp-765719,F11Mn6O1,-2.837522522435345,0.014400235486140013
mp-12671,Er2O2S1,-3.5815600248958335,0.0
mp-558725,Ba5Br2O9Ru2,-2.4649341518055556,0.0
mp-559550,O2Si1,-3.2599538380555564,0.0
mp-556541,Cl1In1S4Sb2,-0.7876234321874991,0.0
mp-14280,Ga2S5Sn2,-0.669351368784722,0.0
mp-694541,Fe1O4P1,-2.294715482023809,0.0
mp-770408,O7Rb6Ti2,-2.3928366333888884,0.0
mp-6856,Be3O12S1Si3Zn4,-2.6897403227445666,0.0
mp-14753,Li7N4Ta1,-0.9784915460625001,0.0
mp-669388,Gd2O1Se2,-2.748083384125002,0.007432828250052736
mp-7446,Rb2S3,-0.9416639671875003,0.0
mp-777622,F3Fe1Li1,-2.7701398416666665,0.01993637349570001
mp-29034,Ge1Te3Tl2,-0.4186450594444467,0.0
mp-621938,Cr2Cs3I9,-1.2045681263423649,0.0
mp-680240,Cl5F4Sb2,-1.5449613181818194,0.0
mp-770699,K1Li1Mn1O2,-1.8283726303528738,0.0066130510001631395
mp-758604,Ag1F2Li1,-2.1464484637499996,0.0
mp-14651,Ag1F11Pd1Zr2,-3.1295732072777778,0.0
mp-22483,In1Na1Te2,-0.7427816512499987,0.0
mp-15379,K2O3Si1,-2.6659037940833334,0.0
mp-29871,Na4O5Se1,-1.6923664344800649,0.0
mp-29080,Br6Na3Y1,-2.0059124165000015,0.014778186999999577
mp-17698,Cd1K6Te4,-1.1084541795606042,0.0
mp-10080,B1Ge1O5Pr1,-2.954505501666667,0.0
mp-574430,Ba1I6U1,-1.5212768175000022,0.0
mp-570615,Ba1Br6Th1,-2.32626227,0.06151226875000004
mp-770651,Co1Fe9Li10O20,-1.9211890380833332,0.0038270361249708174
mp-568177,Al1Ca1H1Si1,-0.46663016062500073,0.00484447406249966
mp-18163,Cd4Ge1Se6,-0.7455118735511355,0.022566824034090646
mp-12488,Cd1Cs1Er1Te3,-1.283701168055553,0.0
mp-28185,Cl1F8Ta1,-2.5444166902333327,0.0
mp-557516,Be2K2O11Si3Zn2,-2.812715690112499,0.0033438270002033475
mp-767641,F7Li1V2,-3.1323308015833335,0.011098651396364545
mp-768810,Br6O1Sr4,-2.5430429227272744,0.0
mp-770522,Al1Li2O4V1,-2.6938881608333336,0.02526102843737732
mp-10621,Rb1S2Sb1,-0.8433561417187505,0.0
mp-721161,H16Mg1N1O10P1,-1.5019398132635469,0.0015007663573478448
mp-557484,Bi1Cl4N3S4,-0.43477922375000055,0.052474763864992724
mp-554174,Ca2H8O11P2,-2.190559010452898,0.01634698419097169