Material ID,Compound,Energy,Hull Distance
mp-27148,Be1P2,-0.39039161823412744,0.0
mp-6989,Ba1O3Se1,-2.0532649728125008,0.0
mp-570757,Cu1Nb2Se12Tl3,-0.7691176960069457,0.0
mp-763331,F5Li1Mn2,-2.9805613739619257,0.029042143333319004
mp-24142,Al1F5H4Mg1O2,-2.657018818846154,0.00976741499864722
mp-6019,Nb1O6Sr2Y1,-3.463982149499999,0.0
mp-29682,Ag8Ba1S5,-0.5274888163541662,0.0
mp-772875,Ba2I6Sr1,-2.040819601851852,0.013791629444444453
mp-754815,Br3Y1,-2.2436434174999995,0.0
mp-556775,S1Zn1,-0.9614513723437508,0.0
mp-1018737,K1Mg1P1,-0.7931373322420635,0.0
mp-772572,Co2O7Rb6,-1.489530456166665,0.0
mp-1007694,F1O4P1Sn1,-2.3107751904251694,0.0
mp-13903,F6Sn1Zn1,-2.649686483750001,0.0
mp-766168,O10Sn1Ti4,-2.9861793607777787,0.048710407333565325
mp-772781,B4Lu2O9,-3.280052953499999,0.040325037041687516
mp-766983,Ca2Li1Nb3O10,-3.1468619041145836,0.028287875937535567
mp-18882,O9P2Si1V1,-2.748505672339743,0.02746756400324612
mp-694885,Ca1La1Mn1Nb1O6,-3.1629360387931036,0.0
mp-569421,Hg9I6P5,-0.28059868078571704,0.0
mp-777235,Cu1O12V5,-2.2139539108333333,0.03149257027778655
mp-769609,Cr3Li4O8V1,-2.420684347708333,0.0
mp-707027,Ca1H1O9Sc1Si3,-3.2532264392499997,0.0007774548055384874
mp-626716,H1K1O1,-1.5509886155833328,0.0
mp-570971,Ga3N5Sr3,-0.7459035888636375,0.0
mp-32884,Ag2S1,-0.21692453381944432,0.0
mp-676400,N1O2Tl1,-0.7610940089583327,0.05782052935360882
mp-687204,Mo1Nd1O8Re1,-2.5727579036363633,0.0
mp-561551,O7Si2Y2,-3.6453366938636367,0.0
mp-767065,F10Li1Mn3,-2.7844271212233167,0.054926940952478374
mp-22583,In1K1P2S7,-0.8233198601401512,0.0
mp-28072,Be2La2O5,-3.4894772258333333,0.03951340777776085
mp-557115,As2Cs2F10O1,-2.6801058801206903,0.005185502666247051
mp-18835,O4P1V1,-2.701904708055556,0.0
mp-559916,Al5Na17O16,-2.2150390705263154,0.00027229954886483877
mp-555559,Nb1O4Se3Sm3,-2.922074532002841,0.023314685454139807
mp-10251,Dy1Li1O2,-3.2207655266666677,0.0
mp-6507,Na2O7Si2Zn2,-2.5740066927122007,0.0
mp-530933,Li5N5P2,-0.9028579755902785,0.010652184791659932
mp-31232,In2O5P1,-2.1219679678720222,0.0
mp-504748,Cl1O12P3Pb5,-2.298224177857144,0.0
mp-764345,Cr1O4P1,-2.5751456255555554,0.0
mp-768369,Ba2F7Y1,-4.2364811871666666,0.0024822139998015302
mp-568436,Ge1N6Sr7,-0.7386749267857147,0.0
mp-541462,O11Sr1Ta4,-3.4283047254270818,0.0
mp-542081,K2La1P2S7,-1.3590802476701391,0.0
mp-764557,F19O5V6,-2.7267932827083334,0.020661466916655987
mp-555393,Bi6Br1K1O9,-1.7088716776323527,0.0
mp-570061,Cl6N1Nd3,-2.5647375439999998,0.008787182999992638
mp-28293,Cl9P1Sn1,-0.8789706541341993,0.0
mp-31116,La1O3Sc1,-3.862127494500001,0.0
mp-556953,P1Rb1S3,-0.9804679560416666,0.0
mp-675420,Ag2Pr4Se7,-1.6496570853645829,0.08873258937503054
mp-770430,Gd1O9Ta3,-3.2819860286154015,0.0
mp-558134,F1Tl1,-1.9607434904166667,0.0
mp-696490,Ca2H2O7S2,-2.234325932884614,0.0731518857691096
mp-18531,Cd3K2Te4,-0.8650246344629626,0.0
mp-773602,Co3Mn1O8,-1.2414034369109193,0.023568014166650702
mp-17288,Li2O4Si1Zn1,-2.6423209148958327,0.0
mp-31419,La1O12Sb5,-1.9343451858333336,0.0
mp-16236,Ag1K1Se1,-0.822426855670139,0.0
mp-467,N4Th3,-1.884495004999995,0.0
mp-13630,Be2F8Na1Rb3,-3.3008274745628077,0.0
mp-2951,Cd1Ge1O3,-1.6439232945,0.0013674918333300922
mp-30321,O13P4Y2,-2.9475087808897253,0.0029586698685118576
mp-581864,As1Cs1Se2,-0.8673551200296332,0.0
mp-561033,Cs1Cu5S3,-0.44716427552083043,0.03306965069444404
mp-777883,Ba6Cl15Y1,-2.830780777272727,0.09473534488636465
mp-774365,F5Li1Mn2,-2.973799923336925,0.029042143333319004
mp-753858,F2O1Ti1,-3.5652645105208336,0.0477984284369275
mp-19128,Co1O1,-1.2692672075000004,0.0
mp-554175,O2Si1,-2.947515300138891,0.0
mp-776627,F6Fe1Li3,-2.9657368235,0.0
mp-555983,Er2O5Si1,-3.83746502234375,0.0
mp-23218,As1I3,-0.5166278381249985,0.0
mp-504265,Cu1O4P1,-1.8844671182738093,0.0
mp-768110,Co1Li2O8Ti3,-2.985093112261904,0.0
mp-757514,Cu2Li4O10Si3,-2.463621070701754,0.08587790789462814
mp-29878,Cl13P1Re2,-0.7588752162797618,0.0
mp-755530,Cu1Na3O2,-1.3509154111925283,0.0
mp-569984,Au2Br11Cs3,-1.259169486799569,0.0
mp-27480,F2O1Sn2,-1.9904531850000011,0.0
mp-770692,Ga2O6W1,-2.190442823055556,0.042102804722215045
mp-573150,Cs2Ge1O3,-2.056124558635056,0.0
mp-601401,C1K1N1S1,-0.5992960330625001,0.004682212118052309
mp-5156,O7P2Th1,-3.279778286541666,0.0
mp-12637,Ba2Nb1Nd1O6,-3.356198729249999,0.0
mp-1001021,Se4Y2Zn1,-1.7797596518154764,0.0486732339285688
mp-768983,Ba2Cl7Y1,-2.8349375982500007,0.009044495750002568
mp-772848,C1K3O7P1Zn1,-2.302687703544872,0.03123751134604
mp-24422,Br1Ca1H1,-1.5654780429166675,0.0
mp-27349,B1F7S1,-2.525415005532407,0.0
mp-556910,Cl1S6Si1Sm3,-2.061394969318182,0.0
mp-28483,Br6W1,-0.6570268385714298,0.0
mp-705361,Cr1Li1O7P2,-2.551216299783548,0.0
mp-769573,Li1O4Ti1V1,-2.8832093364285707,0.0
mp-555845,Ba1F11Li1Zr2,-3.979058946055555,0.0011824736665474234
mp-698475,Cl1Er1H6K4O21P6,-2.4346420706886445,0.034022867227793525
mp-16737,B2Be1Na2O5,-2.721720979859195,0.0
mp-549695,Bi2Cl1Gd1O4,-2.4468045418749993,0.0
mp-29644,Bi4Ge1Te7,-0.47022434597222446,0.0037361624794031156
mp-28558,Br3Ge1Rb1,-1.261634340750001,0.0
mp-554364,Al4Be1Mg1O8,-3.3147993635714283,0.04623788029738561
mp-505141,Cs2S14Sn1,-0.4055822859926466,0.0
mp-18591,K1O4P1Zn1,-2.504582369913264,0.0
mp-28829,Br4Li2Zn1,-1.509131246904762,0.017235566249999983
mp-752682,Ba2I18Sr7,-1.962087125432099,0.05371414361111099
mp-558674,F6Fe1K2Na1,-2.9543214767551724,0.0
mp-755289,Li3O8Y3Zr1,-3.3630799553333333,0.04377712833335749
mp-614603,Cs1I1,-1.7590934148275887,0.0
mp-20402,Lu6O12U1,-4.063240138421052,0.0
mp-773184,Li2Mn1O4Sn1,-2.1210402061997122,0.027898577187026152
mp-29746,Cd4Cl3P2,-0.7342025553835975,0.0
mp-667315,Cl13Nb6O3Sc1,-2.1042359389130434,0.0
mp-557829,Lu2O13Te5,-1.9254874854166673,0.0
mp-1439,O2Ti1,-3.3174958547222233,0.0
mp-13792,K1O13P4Ta1,-2.787035567929198,0.0
mp-560555,Bi2Li8O10Pd1,-1.8490418401984128,0.0
mp-36216,Ag2S1,-0.11805324760416624,0.0
mp-756118,O3Sm1Tb1,-3.7521423513749994,0.08283346600000385
mp-19272,Cr1O4Tb1,-2.775321336944444,0.0
mp-775695,Li4Mn3O16Sb3V2,-2.1479521327545155,0.060170723647657506
mp-560977,K1P1S5Ti1,-1.2392291097157733,0.0
mp-689684,O5P2,-1.7070378350595234,0.0
mp-755574,Al1Lu1O3,-3.7848969067500007,0.02109659624997704
mp-29699,Nb3O6Ti1,-2.7125361251666673,0.0
mp-23040,Ca2I1P1,-1.6591157469940487,0.0
mp-1019576,Ca4N4Si1,-1.2228174252778017,0.0
mp-18822,F1Mn2O4P1,-2.653789022086924,0.0
mp-567878,Al1Br4Tl1,-1.3239236291666667,0.0
mp-15704,Be1N2Si1,-1.43251207375,0.0
mp-776911,Mg1O1,-2.86088753875,0.0
mp-24421,Ba1Cl2H2O7,-1.2467772063541662,0.011998773957340761
mp-20185,Lu1Ni1Sb1,-0.9552865566666663,0.0
mp-561480,F3Na1Ni1,-2.5592369299999995,0.0
mp-644222,Cd1Cl1H1O1,-1.4076048359374997,0.0
mp-568560,Br1Tl1,-1.0262503900000013,0.0
mp-768674,Cs4Se14Zr3,-1.3675824241158685,0.0
mp-6467,Cu1Na2O7P2,-2.380582829545361,0.0
mp-697268,Ag1H2N1O3S1,-1.0148882172395837,0.0613692405425188
mp-5598,O2S1Sm2,-3.4615424615625017,0.0
mp-557577,K3O7Sc1Si2,-3.0354733418653845,0.0
mp-759925,H2Hg2O11Se2Zn2,-1.221487575773027,0.0
mp-753260,Ag1La1O2,-2.4136564000000007,0.0
mp-761683,Na4O4Ti1,-2.3729501443167305,0.0
mp-560860,Na2O3Pt1,-1.5045976940589074,0.0
mp-15221,Cu1Nb1Rb2S4,-1.3166250078124992,0.0
mp-643829,Al1H1O4Si1,-2.825807744464285,0.08307739857143
mp-22982,Bi1Cu1S2,-0.3643420451562456,0.0
mp-28589,Br7Ge2Rb3,-1.5674989920833333,0.00039215687499893903
mp-755684,Ca2I6Sr1,-1.912979956111111,0.032362992458701986
mp-768311,Cs3N1O4,-1.2942323936206903,0.02417836236113291
mp-30456,Bi1Li1Sr1,-0.8426694144444461,0.0
mp-18852,Mo1Na2O4,-2.155917617586208,0.0
mp-770545,Al1Cr1Li1O4,-2.5947204297619035,0.07657885874858852
mp-636368,Fe1Ga3,-0.23824714374999978,0.0
mp-23024,Br1F1Sr1,-3.4050659991666685,0.0
mp-652366,Mo1O8Pb5,-1.661573050892855,0.011965036897323549
mp-754162,Gd1Li1O2,-3.098392079791669,0.0
mp-777672,F3Fe1Li1,-2.7525254091666667,0.01993637349570001
mp-27657,B6Ca2O11,-2.8744176446052627,0.0
mp-31033,F4Hf1,-4.103413282333334,0.0
mp-776691,F5Li3V1,-3.0173088387500004,0.05286765805556036
mp-759287,Cu2Li1O4P1,-1.8432275827083338,0.09721506593559304
mp-38771,Gd2Mg1S4,-2.105850349642857,0.02701393553576738
mp-775705,Fe3Li4O16Sn3Ti2,-2.31078639375,0.050192466964934415
mp-768786,Ba1I5Y1,-1.801059171309524,0.06748257089285735
mp-683991,Bi4Cu4S9,-0.5218741632352933,0.008766006862745796
mp-558128,K1Nb1Nd2O6,-3.3638719660499996,0.0
mp-684021,S13Sb6Sn4,-0.2917919500679293,0.05195112826087096
mp-757077,Cu2Li2O19Si8,-2.7913250255779567,0.10760763870968507
mp-18889,Ag3O4V1,-1.2465797106250003,0.0
mp-31064,B6H10N1,-0.39301485264705854,0.0
mp-18256,B2Mg2O5,-3.0227219055092593,0.0
mp-23569,As1F6I1Se6,-1.3180273020758928,0.0
mp-600084,O2Si1,-3.254129286249999,0.0
mp-754334,Na1O2Tm1,-3.1679335937500017,0.0
mp-7738,F1La1Se1,-3.3499221988541663,0.0
mp-555825,Na4O13Sc2Si4,-3.1572364628242138,0.0
mp-21554,F1O12P3Pb5,-2.374074464880952,0.0
mp-1153,Li2S1,-1.5037692365972226,0.0
mp-743,N3Rb1,-0.41229142437499977,0.0
mp-650929,Na2O19Ti9,-3.3348482168419538,0.03345344458319914
mp-570411,In2K12Se9,-1.2590159009605981,0.0
mp-6488,As1K1O5Ti1,-2.567576614072917,0.0
mp-555508,Ca11O18S1Si4,-3.3658594052205872,0.02503465705553969
mp-695119,Na3O12P1Si2Zr2,-3.1393193986890386,0.0
mp-756473,Cl4S1W1,-1.2898615046875002,0.001676986958347726
mp-560394,As1Cl1O2Pb1,-1.633562605249999,0.0
mp-4123,Er1S2Tl1,-1.7123104472395845,0.0
mp-29078,As2Br3Hg4,-0.4786884455555587,0.005252503611111169
mp-28922,Ca2N8Si5,-1.4075329206666671,0.0
mp-547017,Al1As2Li1O7,-2.2114593455303035,0.02113061681848194
mp-3653,Mg1O3Sb1,-2.0079445222222225,0.15697778674926716
mp-567386,Cd3Cs2Te4,-0.8930207628863351,0.0
mp-17297,F6Ge1Na2,-2.9904762559003832,0.0
mp-558456,Hg3O5Se4,-0.8248570715104163,0.0
mp-1018030,O1S1Sr2,-2.512940836302084,0.2234507624999944
mp-30980,Na1O2Y1,-3.1318308658045977,0.0
mp-697734,Mo1O13P4,-2.292902464226191,0.07386153282968166
mp-12862,Lu1O4Ta1,-3.6067840073333364,0.0
mp-764685,F3Li1O1V1,-2.9603682032638887,0.006431431706131363
mp-753202,Cu1F8Li5,-2.7678819802380943,0.000793790238092689
mp-680676,Cu4Dy4K2S9,-1.654217154403506,0.0
mp-769280,Ca5O15Ta4,-3.400986077576389,0.049461686211436394
mp-17836,Ba1Be1Nd2O5,-3.437446250416667,0.0
mp-505701,H5Na1O8P2,-2.0289074567636494,0.0
mp-755260,B6Cd4O13,-2.358553804293478,0.026112576027055242
mp-22009,Pb1Se1,-0.5990207695312435,0.0
mp-699575,Co1O3Si1,-2.4479331337499994,0.017315687500002497
mp-23870,H1Na1,-0.292902834375,0.0
mp-754853,Ca1Hf1O3,-3.8217014392500004,0.0
mp-770756,B1Li3O7Si1Sn1,-2.5985349405128195,0.0655711221167688
mp-752514,Ba1I4Sr1,-2.01347225,0.021835488333333746
mp-13546,Ge2O7Y2,-2.870217588409092,0.0
mp-626483,H4O5S1,-1.4540336627499997,0.0
mp-760468,Bi1Li1O6Si2,-2.7204692130833337,0.04208266662463558
mp-756850,Al1Lu1O3,-3.7041246971666673,0.02109659624997704
mp-555606,Be4Na10O17Si4,-2.7097321897512328,0.002926492714162724
mp-27506,Cl9K3W2,-1.476615365267859,0.0
mp-559826,Cu1Er1S2,-1.6180535253125008,0.0
mp-765457,F3Li1Mn1,-3.0077151112528737,0.018346049749996853
mp-7582,Ge1S2,-0.6464008854166666,0.0
mp-4809,Ga2Hg1S4,-0.8280167260714286,0.0
mp-27138,Br4K2Pd1,-1.5313399777857135,0.0
mp-1019604,B2Cs2O13S3,-2.2236886278660206,0.0
mp-554955,Cr1F6Mg1,-3.120076970625,0.0
mp-676338,In2Mg1O4,-2.268548347619046,0.021950002142843976
mp-10694,F3Sc1,-4.219395654375,0.0
mp-558514,Cd1F7Rb1Zr1,-3.4285527445,0.0
mp-23104,Cl1F1O1Pb2,-1.9289767489999996,0.0
mp-27996,H2O3Se1,-0.8965205615104163,0.0042825189583270236
mp-4651,O3Sr1Ti1,-3.5530125952500002,0.0
mp-754114,O4Sc2Sr1,-3.707943973095238,0.0
mp-10368,Co1P1Se1,-0.6212058814756958,0.0
mp-767063,O3P1Sn1,-2.370703277407408,0.3098804222143009
mp-735545,Cl5Fe1H2O1Rb2,-1.45417287,0.0
mp-17566,Ba5P4,-1.1735862418783067,0.0
mp-770645,Hf1Li8O6,-2.4520233389444437,0.0027599136666689597
mp-559182,Cl1F6Ir1P2,-2.3514920114285713,0.0
mp-675651,Mg1P1S3,-1.0594508485416667,0.0
mp-625957,H4O7Ta2,-2.3536319477884606,0.03478175461537839
mp-771944,Ba3Cl12La2,-2.877985329705883,0.0413727344117652
mp-22724,Ce1F7Zr1,-4.178630443611106,0.0
mp-754964,Hf1O4Zr1,-3.8691750375,0.03948613124996925
mp-676512,Al1F6Na3,-3.3820482144655175,0.0
mp-17208,K2Li14O14Zr3,-2.5718026007626262,0.0
mp-645326,Al3Bi5I12,-0.7462259285000001,0.02440632700000016
mp-22955,I1Li1O3,-1.0908060583333339,0.0
mp-571222,Br1Cs1,-2.094848278965517,0.0
mp-30452,Bi1Dy1Ni1,-0.6846689072222224,0.0
mp-28698,Ir1Na4O4,-1.5644625395019152,0.0
mp-768216,Bi1C1Li2O7P1,-2.2870611353124985,0.04796821083359504
mp-759242,Cl5H10In1N2O1,-1.0099011867763152,0.010661050000061024
mp-761486,Fe1Li1O4P1,-2.453715074710883,0.0
mp-3336,Ga1La1O3,-3.089826764,0.03196867907138419
mp-546684,O3Pd1Se1,-0.6965833478125006,0.0
mp-36029,Ag1Er1S2,-1.546652952916666,0.0019311338541614376
mp-772640,Ga2O6W1,-2.1561143458333323,0.042102804722215045
mp-775199,Li1Mn1O4V1,-2.3576273244663386,0.0
mp-643004,Fe1H8Mg2Sr1,-0.42937543750000035,0.0
mp-570552,Cd1I2,-0.8728620348717948,0.0
mp-770401,O4P1Sb1,-2.0136409817460312,0.0
mp-28204,Cs1H7O4,-1.1983031946874998,0.0
mp-17922,Ca2O7P2,-3.210657679480519,0.0
mp-555721,Ga1N3O1Sr4,-1.2216392202777782,0.07338780735927604
mp-1074,Rb1Si1,-0.1193329985937499,0.0
mp-763425,F7Li1Mn2,-2.8518983156695406,0.01569135466653009
mp-12455,Cu1S2Tm1,-1.5909293651562528,0.0
mp-542888,Ag1La3S7Sn1,-1.7929966707638887,0.0
mp-1013548,Ca3N1Sb1,-1.203127009,0.0
mp-763349,F4Li2Mn1,-3.008081471013957,0.01941146571428882
mp-699213,Cs1H1O8P2Zn2,-2.3711571742993476,0.0
mp-6452,Ba1O5Sm2Zn1,-3.184902895277778,0.00931765837941809
mp-568478,Cl18Nb6Tl2V1,-1.6102829054320986,0.023278470123463377
mp-1019584,Al2Ca1O6Si1,-3.4256731119999997,0.01644746545951037
mp-776437,La1N1O5Ta2,-3.193663728018519,0.026023741666738057
mp-756637,Ba3Ge1O5,-2.819962640972223,0.0
mp-561102,Bi1In1O3,-1.7853012383333329,0.0288547127499978
mp-768280,B4O9Sm2,-3.2759573326944444,0.010658924526403742
mp-560773,Cl1K2Na1O6S2,-2.0786282263232754,0.004423393529159843
mp-35596,Fe2Ni1O4,-1.6045405185714299,0.0
mp-1707,Ba1N6,-0.49230489428571544,0.0
mp-772441,O9W2Y2,-2.88242708996795,0.025385022692306008
mp-559962,O2Si1,-3.004038743888889,0.0
mp-18977,Ba2Ca1O6W1,-3.0271147194999997,0.0
mp-28156,Cl4Gd1Na1,-2.5259350710919546,0.0
mp-755175,Al2O3,-3.3553025957499996,0.0
mp-567424,As5K8Nb1Pb1,-0.46281964176666623,0.0
mp-753123,Cu1F4Li2,-2.5809221547619043,0.017085583571521568
mp-771025,B1Na2O7Sb1Si1,-2.474146588702107,0.07949584819419038
mp-15590,Nb2O7Sr2,-3.2965217515909084,0.0
mp-546190,Ag2O3,-0.3601406719166668,0.019417876916666233
mp-753287,Ca1Cd1O2,-2.3421665887499987,0.0
mp-770546,F2Li2Mn2O7P2,-2.640178236120964,0.09668117510329352
mp-541687,Ga1K3Se3,-1.2697086423258928,0.0
mp-707391,As1H24Na3O15Se1,-1.3526098580283845,0.016809933945819887
mp-557741,Ba17O57Pt4Tm16Zn8,-3.0118081785049027,0.0
mp-774246,Nb9O25V1,-2.97174805825,0.03040319521428785
mp-23434,Al2Cl8Cu1,-1.4039510040909098,0.0
mp-1020164,Li1Na3O7P2,-2.64507867160809,0.0
mp-766256,O3Tm1Y1,-3.9694181252500016,0.0027986568750357323
mp-766870,F1Mn5O9,-1.8497061853103436,0.06812874058332194
mp-558702,Cs1F3Mn1,-2.9911211373505693,0.0
mp-653559,I2P4Se3,-0.31648457781828654,0.0
mp-754341,Ho2O6Te1,-3.0289030525000005,0.0
mp-777559,F4Fe1Li1,-2.8008739638888884,0.002276242685136154
mp-22888,Br2Ca1,-2.374925591666667,0.0
mp-4602,O7Tb2Ti2,-3.671127999848484,0.0
mp-21949,K4O3Pb1,-1.379445316093749,0.0
mp-600052,O2Si1,-3.2580333550000007,0.0
mp-773111,Ba2Cl7La1,-2.8519379410000005,0.01170147574999767
mp-18540,Cs1Cu3Er2S5,-1.4597843066869125,0.0
mp-772290,Ag1Li1O1,-1.253047749999998,0.0
mp-776658,Ba1O1,-2.674332300625,0.0
mp-556108,Cl1Dy1O3Ti1,-3.536025868749998,0.0
mp-559210,Ca5O14Te3,-2.5128375045454545,0.0007691402272601264
mp-556979,Cs1Ge1S4Sm1,-1.5622224892364527,0.0
mp-3967,N1Na1O1,-0.9604976379597711,0.0033378670833412727
mp-773501,Li3Mn1O6V2,-2.3656866056609185,0.04876739562474105
mp-650715,Be2Gd2Ge1O7,-3.2489816806250005,0.0
mp-13042,Na1O6Sr3Ta1,-3.1672593658228836,0.0
mp-764496,Na14Ni2O9,-1.3899243406724133,0.0036416593333302672
mp-18168,O4P1Tl1Zn1,-2.022529855068027,0.0
mp-1019892,B8La2O15,-3.106618436783333,0.022917758866666985
mp-569687,Cl1Cu1Hg1Se1,-0.6159566662109377,0.0025270386237296605
mp-680247,K3N7P6S6,-0.7983406041866875,0.015150298862587746
mp-3551,Ag1Tb1Te2,-1.1318458587500002,0.0
mp-777766,F7H1Li3Nb1O2,-2.7180833929464288,0.12142172640230495
mp-572598,Cs2Ge2S5,-0.9311498240624998,0.0
mp-560412,Gd1H4N1O12P4,-2.3858895189015144,0.00480236630491504
mp-758059,Ba7O24Pb17,-1.8872579516666654,0.009249330868094319
mp-730972,Cl1H10O8P3U1,-1.5428047245652177,0.040158999268403515
mp-560345,Cs3Cu1S9Te1,-0.8284924946880129,0.003685570714280471
mp-27478,F8Na3Pa1,-3.6484442833045976,0.0
mp-1500,Ba1S1,-2.329084296249999,0.0
mp-23398,B1Cl1F6,-1.8104884968749992,0.0
mp-771523,Cr2Li1O4,-2.2411893058333336,0.019712365540455985
mp-754191,La2O9Ti3,-3.629427704910715,0.03712931339289024
mp-29783,B5H9,-0.16383931738095267,0.01959365074075795
mp-568954,Cu1Ge1Nd3Se7,-1.5846004424088544,0.0
mp-1639,B1N1,-1.335625025625001,0.0
mp-306,B2O3,-2.79881968625,0.0
mp-604120,H6N1O4P1,-1.4213993644444436,0.0
mp-28952,O4Pd1S1,-1.085237201302083,0.0
mp-777427,Li4Mn2O16Sn3V3,-2.2614347158641217,0.058695384507288395
mp-30274,Ac1Br1O1,-3.3624750758333306,0.0
mp-558186,F10Lu3Rb1,-4.323178911964286,0.0
mp-641923,Br6Cs2Sn1,-1.518356747777776,0.0
mp-5052,Cd1O3Ti1,-2.5021682453333325,0.0
mp-1714,Fe1Si2,-0.39563509333333374,0.0
mp-763291,F1O5V3,-2.6044720295833326,0.00132751277769769
mp-772609,La2O5Zn2,-2.717051032083331,0.09310412444446886
mp-755061,Ca1I4Sr1,-1.9019408906944448,0.0
mp-1020141,Al2Na2O10Si3,-3.1311089438590263,0.044080350514982436
mp-687227,Mn1O11Pb5Sb2,-1.7384522965358438,0.0
mp-30253,Na10Sn12Sr1,-0.3274520617391313,0.0
mp-5072,Hg1O2Rb2,-1.3053300614999994,0.0
mp-755231,Li1O3Te1,-1.7481011569999994,0.061630856913183506
mp-768305,Hf1O4Sr2,-3.5848221583333335,0.006370877500080395
mp-6548,K2La2O10Ti3,-3.4349740231470585,0.0001764310289022366
mp-770456,Li6O7Ti2,-2.7961397906111114,0.011646225333314438
mp-624190,Ge1Pb1S3,-0.7319933799999994,0.0
mp-541459,K1O5P1Sn1,-2.5068484861041673,0.0
mp-558924,F14Ga3Na5,-2.9760856681818173,0.0
mp-753277,Ag1F2Li1,-2.1485995925,0.0
mp-2490,Ga1P1,-0.409846250416666,0.0
mp-15079,Cs4F12Ga2K1Li1,-3.0867630206528736,0.0
mp-753098,Cu1F2Li1,-2.256575459583333,0.0025653831250820325
mp-41191,F1Na3O10P2Ti2,-2.9888706381994603,0.005205471790631972
mp-705547,Fe2O3,-1.5446567907499997,0.0
mp-634381,O7V2Zn2,-2.1369281993181826,0.0
mp-619064,Ge1Mn1O5Pr1,-2.677649015210129,0.0
mp-32581,Pr2Te3,-1.7117006952499991,0.0
mp-735529,Fe1H6N1O5P1,-1.5044524049744885,0.006563587064399253
mp-753662,K2Mg2O3,-2.203581529642857,0.007326796824141216
mp-35082,B1H6N1,-0.3255608930208327,0.0
mp-17709,Na2O4Si1Zn1,-2.481125125657327,0.0
mp-691065,Ba2Ca1K6O24U6,-3.3379426950769235,0.02298716089729297
mp-18610,O4Se1Si1Sm2,-3.3943746196679694,0.0
mp-13230,F6K3Y1,-3.5832554946749986,0.0
mp-30150,B1Ga1H6,-0.09322281124999954,0.0006847439549994838
mp-756469,Dy1Lu1O3,-3.9284081575833283,0.07527941937489543
mp-3839,Cu1Ga1Te2,-0.4954658827083329,0.0
mp-669528,Na2O4U1,-2.9951971514655162,0.0
mp-753418,Nd2O4Sr1,-3.439670074285715,0.0324388125000087
mp-560993,Al12Ca1O27Si4,-3.3612416373295444,0.04358613315365354
mp-684679,O13Sb6,-1.46893356236842,0.022668296052630484
mp-1007637,H2K1Na1,-0.2208776923879312,0.05552817999999962
mp-561246,Al2O9Pb2Si2,-2.8750013529166667,0.013993330974507027
mp-3414,Ag1F6Sb1,-2.361922204270833,0.0
mp-34361,Bi1Te6Tl9,-0.46983106312499956,0.0
mp-764900,F1O1V1,-2.9339102841666667,0.0
mp-573321,I2Pd1Te1,-0.539609415416666,0.01882629899999924
mp-770591,Al1Li3Mn1O4,-2.4582528706034483,0.054541761251878124
mp-738624,H9O11P2Sm1,-1.8234756468348878,0.023399257173864547
mp-5840,Li1O2Sc1,-3.342469784583333,0.0
mp-18869,Mn2Na4O5,-1.8754820658072113,0.0
mp-775763,Al1Bi1O3,-2.48622408275,0.05258694562509732
mp-21137,Ca2O4Pb1,-2.3776155935714303,0.0
mp-10487,Rb1Sb1,-0.5637552331250006,0.0
mp-765894,F8Li5V1,-3.1525343040476193,0.04654739345238517
mp-36248,Br1H4N1,-0.6017421939583336,0.0
mp-562667,Ag3N5O6,-0.3192001789285714,0.09048876185714315
mp-554681,S1Zn1,-0.9620172412276783,0.0
mp-755480,K1O1Rb1,-1.097018088083333,0.09146650999999961