Material ID,Compound,Energy,Hull Distance
mp-23167,Cl1Tl1,-1.1098592912500003,0.0
mp-29415,Cd3Cl3P1,-0.8829669564965984,6.363109884624915e-05
mp-775438,F5O1V2,-3.043620735625,0.0
mp-644223,B1H4Li1,-0.40310859458333387,0.0
mp-6795,Ba5Ho8O21Zn4,-3.261140822993421,0.009537439013070295
mp-557084,Al2Cu1F2O7Si2,-3.0890907693750007,0.019416566607058577
mp-3070,C1Na2O3,-2.0742043911422408,0.0
mp-14161,Al6O16S1Sr4,-3.2829336948070984,0.004599387683019477
mp-573568,I6K2Tc1,-1.0048353427222214,0.0
mp-36866,Al2Cd1O4,-2.817885159999999,0.024173334999994318
mp-556589,C2Ga1H20N1O14S2,-1.2133326353125,0.060132589379528055
mp-3934,Cu3P1S4,-0.5201946307291667,0.0
mp-23704,Al1H4Na1,-0.21267999916666666,0.0
mp-675250,Bi2F7K1,-2.76452391655,0.0696296920004773
mp-23730,H3Mg1Na1,-0.30838298781034473,0.0
mp-4431,Ag3As1S3,-0.3134628820535715,0.0
mp-546350,Bi2Br1O4Tm1,-2.4492663287500003,0.0
mp-14635,Ag1Rb2Se4V1,-1.1043663832552078,0.0
mp-558836,F6Mo1,-2.6076308021428574,0.0
mp-27998,K1Nb3O8,-2.9895546344166655,0.0015087496602260349
mp-3556,O2S1Tm2,-3.6208017195000037,0.0
mp-768027,C1Mn1Na2O7P1,-2.299949864611042,0.0
mp-770380,In1O9Ta3,-2.824276575923077,0.05510749576922955
mp-675682,Al11N1O15,-3.2454587899074077,0.04225583259259085
mp-757001,O24Tm1Y15,-3.917155147,0.0006972208906248056
mp-17621,Cs1O4Re1,-2.358627048821839,0.0
mp-776226,Hf2N2O1,-2.5271886684999982,0.0
mp-560633,Al2Cl6O1Sn1,-2.0808106865,0.0
mp-541975,Rb3S11Ta2,-1.2055958890234368,0.0
mp-29149,Cl1Li4N1,-1.018106857986112,0.0
mp-758948,C1Cs2H6O6,-1.6067951110574716,0.0
mp-625147,Gd1H1O2,-2.9380591493750003,0.0
mp-27125,Cl8Mn1Na6,-1.9537926802988503,0.0
mp-740722,Ge1H11Na3O9,-1.529129964673133,0.006993137031264733
mp-531661,Nd10O39Ti12,-3.4317924013934404,0.15888114885245747
mp-772156,As1Er1O4,-2.855349904166667,0.0
mp-760762,F3Nb1O1,-3.097655259999999,0.0
mp-569571,Nb3Sb2Te5,-0.644887052833333,0.0
mp-561442,Hf2O7Y2,-3.920588861818182,5.7707727264564504e-05
mp-558235,Ca1F7Ta1,-3.844074071833333,0.0
mp-777481,Ba6Br15Y1,-2.4875413609090913,0.06143724636363759
mp-504852,Cs2In1Na3O4,-1.6234626358017241,0.0
mp-29763,Br3Mn1Rb1,-1.581728169086201,0.0
mp-17064,Gd2O7Sn2,-2.8273749849999983,0.0
mp-23373,Ba1Cl4Zn1,-2.268070644166667,0.0
mp-24992,Fe1H1O2,-0.9891800853124995,0.010833543437497761
mp-22971,Br1S1Sb1,-0.8158934199999995,0.0
mp-765697,Fe1Li2O4Ti1,-2.557033564374999,0.044479184374900615
mp-756427,Li5S4Sb1,-1.219388550666666,0.051351565499990134
mp-769713,B4Na4O16S1Sb2,-2.3205507086919956,0.05820353693837256
mp-540784,O13Rb2Ti6,-3.3328860785119048,0.0
mp-560772,B2Mg2O5,-2.870457670833334,0.0
mp-582648,Br10Rb1Re3,-0.7663069709821408,0.0
mp-19449,Cd1Na1O4V1,-2.1301936166502458,0.0
mp-17043,S4Tm2Zn1,-1.9859477254761906,0.016272451012390072
mp-29222,Ba2O8Si3,-3.378716741730769,0.0
mp-28871,I5In3Sn1,-0.7136912175,0.0
mp-697022,Ca6H6O13Si2,-2.5926212693518296,0.006520985833323271
mp-18147,Ga1Li1O4Si1,-2.786700299166667,0.0
mp-13798,F6K2Na1Tl1,-2.694992786421265,0.0
mp-541067,Hg1N1O2,-0.566471349375,0.036698765952500434
mp-28856,Au5Na7S6,-0.9056765831752871,0.000407725833330572
mp-766288,Ba2Ca1I6,-1.9969689419444445,0.006904217777777709
mp-23442,Cd1Cl3K1,-1.6690854362499992,0.0
mp-5079,F4K1Sb1,-2.8739081457916567,0.0
mp-559489,K2O7Si2Zr1,-3.183634098708333,0.0
mp-23800,H1K1O4S1,-1.9559472053214282,0.0
mp-673801,Ca3F9Nd1,-4.160775510641029,0.12234935474359514
mp-14607,K1O3Sb1,-2.028154492283333,0.0
mp-770296,La4O9Zn3,-2.9969675102343754,0.0973369406249831
mp-3848,Ba1Ge4O9,-2.351543791488094,0.0
mp-760417,I2O1Rb4,-1.5223872328571417,0.0
mp-19068,O4Tm1V1,-3.2183615911111105,0.0
mp-553924,Ag4I1O4P1,-1.2310900663809512,0.0
mp-12171,K6Mg1O4,-1.586617246181818,0.0
mp-767753,Fe2Li2O19Si8,-2.8862632368682792,0.06598191826612865
mp-4156,Li2O3Zr1,-3.0380646123611115,0.0
mp-769702,Li1Mn4O8,-1.9178019226967296,0.025031605749999877
mp-684690,Sc2Se3,-1.927741243437501,0.0
mp-17956,Ca2O5U1,-3.6291082168749984,0.01649259718751539
mp-625998,H1Li1O1,-1.7759636523611106,0.0
mp-558323,B2Bi2O7Sr1,-2.5026797782638877,0.010147015727792011
mp-555477,Ag2H3I1O6,-0.803736192569445,0.0615482809374989
mp-28980,Bi1K3Se3,-1.161118059790179,0.0
mp-2131,N6Sr1,-0.4981815059523801,0.0
mp-1019967,La1N5Si3,-1.5170695204166675,0.0
mp-22630,Pb1S4Sc2,-1.7983608867857137,0.00761868999999038
mp-42255,Ca1F1Na1Nb2O6,-3.184705893534483,0.005252330119512164
mp-572271,Cs3O21P7Pb2,-2.5769935904231964,0.0
mp-764142,Li5Mn1O8V3,-2.296890381005747,0.05927101828350471
mp-510710,Ag1Cs2S4Sb1,-0.9023006743785915,0.0
mp-3930,Mn1S4Sc2,-1.9010430801046792,0.0
mp-31454,Ru1Sb1Ta1,-0.4429721466666668,0.0
mp-28808,O4Re1Tl1,-2.0006397320833336,0.0
mp-561584,Gd2Ge1O5,-3.2960158429687505,0.0
mp-753179,Cu1Li2O4P1,-2.2491208564136898,0.04814798843522272
mp-554370,Cl6O1S1Ti1,-1.6109771539120377,0.02060551582949029
mp-22903,I1Rb1,-1.7211735837499997,0.0
mp-619510,Br5Cs1Hg2,-1.212891942241379,0.0
mp-17160,Dy1F7Pt1,-2.819083941666665,0.0
mp-15791,Er1Li1S2,-2.1213996764062486,0.0
mp-23808,B1H1K1O9P2Sc1,-2.8719384036301583,0.0
mp-28653,Nd1O9Ta3,-3.312642039192309,0.0
mp-769187,O25P6Sn5,-2.415941616770834,0.04226800569444341
mp-29395,Al1I4Na1,-1.1886218556752877,0.0
mp-561545,O9P2Sn4,-2.202334321119048,0.0059337304166210934
mp-559586,Ba1C1Na2Nd2O15Si4,-3.177422458510345,0.0
mp-761169,H2Hg2O11S2Zn2,-1.5506560167105268,0.0
mp-15500,P4Sr4Ti1,-1.2993674930357157,0.0
mp-555284,Al1Ba2Nd1O5,-3.3450533838888887,0.012685745231370523
mp-761184,Na2O3Sn1,-2.0734439828089086,0.0
mp-28408,Cl3K1Tc1,-1.3591392282499997,0.05126851049998642
mp-771645,Ca1I6Sr2,-1.947435308425926,0.02224016625499677
mp-4666,Cd1P2Si1,-0.27258217898809356,0.0
mp-557752,Cs1H1O4S1,-1.9539818494365757,0.0
mp-585354,Cr2Li1O10P3,-2.5611745682663685,0.024589603405821947
mp-13326,Lu1Pr1Se3,-2.15839453440625,0.0
mp-680374,Al1K1O4Si1,-3.189781763642857,0.0
mp-27398,Br2Tl1,-1.0680658540277779,0.0
mp-18635,Ga1N5Sr6,-0.7462177053125055,0.0034574005584365373
mp-4558,Ge1Li4O4,-2.2984525831481477,0.0
mp-554852,O13Te5Y2,-2.1793315095416674,0.0
mp-29008,Br8Li6Mg1,-1.8643237010000007,0.0198694633333344
mp-697558,C2F5H12N6Sb1,-1.0383329164423074,0.0
mp-7238,B1Nd1O3,-3.3210042724999993,0.0
mp-15572,Al1As4Ca3Na3,-0.8610581140595612,0.0
mp-754158,K1Nd1O2,-2.8734356978125,0.0
mp-10161,K1Sb1Zn1,-0.4985859595833328,0.0
mp-705479,Cl4H6O3Sn1,-1.330405074464286,0.0
mp-720300,C1Cl1H4N2S1,-0.5155403211805551,0.050489975545631026
mp-3563,Ba5Nb4O15,-3.268865735520835,0.0
mp-559551,Bi4Cu4S9,-0.5433756938235289,0.008766006862745796
mp-756401,As1O4Ta1,-2.5332050616666657,0.039362991249743594
mp-554260,As2F18Sb2Sn1,-2.6060294065217393,0.00010914445741428341
mp-15783,K1S2Sm1,-2.1102096860624995,0.0
mp-752451,Cu1O2Zn1,-1.0799249628571428,0.18656533687500731
mp-775866,N2O1Zr2,-2.4493072369999993,0.0
mp-765358,F5Li3O1V1,-3.0337527871250005,0.017867213524264968
mp-643387,Al1F3H2O2Pb1,-2.5510915627777777,0.0
mp-766351,Ba2Ca1I6,-1.9846825161111106,0.006904217777777709
mp-768597,Cl5La1Sr1,-2.6501779382142905,0.04997082071429101
mp-775918,La1N1O2Ti1,-3.0406134621666667,0.033488175254409926
mp-10517,Li1O7P2Sc1,-3.084357332840909,0.0
mp-766301,Ba2Ca1I6,-1.9877308266666667,0.006904217777777709
mp-1013547,Ca3P2,-0.8591319365238078,0.14407271516666587
mp-766276,Ba2In2O5,-2.35059978625,0.0
mp-19005,O12W1Y6,-3.65545191631579,0.0
mp-721851,B1H1O2,-2.2537405265625003,0.0
mp-558380,Cr2F5,-2.946066690357143,0.001775858571425561
mp-754177,Ca1Gd2O4,-3.514932978928568,0.058276289999996934
mp-7386,Ag1F4Na1,-1.8746950916666663,0.0
mp-18556,Cd3Rb2S4,-1.0626475641666668,0.0
mp-556198,Na2O7Si3,-2.978914829529454,0.016567303541559514
mp-770737,Ga2O6W1,-2.1891219624999994,0.042102804722215045
mp-28673,O6P4S1,-1.625730526232954,0.058037716672486604
mp-542302,Bi3Cu1Pb1S6,-0.6348688518181812,0.0048758854486940255
mp-1784,Cs1F1,-2.839082803750001,0.0
mp-676261,Nb1O7Y3,-3.4955202187499994,0.2453891731818074
mp-760205,Ba16O59S16,-2.6673916467307683,0.019872258804757445
mp-695476,La1Na1O30Sr8Ti10,-3.525127208214368,0.09329215734144385
mp-6798,Ba2Na1O6Re1,-2.6855707348879307,0.0
mp-555255,F5N1S1Sb1,-1.9402861657812496,0.04517257221564508
mp-705013,Bi8Cr1O15,-1.6959214162499994,0.002923995700761258
mp-755488,N1O2Sr1Ta1,-2.7419943714666672,0.0
mp-559670,Ba1K1O7Si2Y1,-3.384256899451388,0.0
mp-760811,Cu3F14Li5,-2.2573046250000046,0.07662760015143116
mp-560748,Cl3F2Sb1,-1.4314817666666666,0.0
mp-777666,Cr1Li2O8V3,-2.460014031190476,0.006696120906555437
mp-31273,Cu1La2S4,-1.927660721071428,0.0
mp-11022,Ag1O2Sc1,-2.508847378749998,0.0
mp-761024,Cd2Na2O3,-1.3114444292857144,0.006342367499996472
mp-27623,Na6O4Pb1,-1.4438099090282128,0.06061189931821173
mp-571440,Br3Cu1K2,-1.563033116166667,0.0
mp-5363,Hg2O5Te1,-1.0527509548958358,0.018592427187501537
mp-1146,S2Th1,-2.284165838541663,0.0
mp-770977,Ca2Ce1O4,-3.3921047628571404,0.02107280428575718
mp-558116,F4K1Mn1,-2.9534512693218393,0.0
mp-642661,Ba1Cl2H2O1,-2.095640865625,0.0308559958335195
mp-770349,C1Li1O7Si1V1,-2.38355703746212,0.09148018431739047
mp-769650,Bi2O7Zr2,-2.7829721196590906,0.053395505454465114
mp-28769,K1Se2Sn1,-0.7107117607142855,0.0931450781249834
mp-6788,Ga5La3O14Sn1,-2.8295710666304346,0.0
mp-548469,Ba1O1S1Zn1,-2.0769667062499995,0.0
mp-623028,Ag1Cs2Nb1S4,-1.2953506212535926,0.0
mp-570081,Cu1I1,-0.36727937499999985,0.0
mp-22688,Cu1O3Se1,-1.08357426796875,0.007615246191684122
mp-20546,Ba2In2O5,-2.420001497314816,0.0
mp-541375,Br3Cd1H4N1,-0.761291666805557,0.016972793888888935
mp-754335,Ga3N1O3,-1.748329727857142,0.043974436785708955
mp-755492,Cu1Na1O7P2,-1.979773902813853,0.0
mp-29424,As3Sr4,-1.1285100511309527,0.0
mp-24796,B12Br1H12Rb3,-0.4959200352678564,0.003347901428571046
mp-28911,Ba1H9Re1,-0.3356274564772729,0.0
mp-560023,F6Ni1Sn1,-2.63960540875,0.0
mp-560530,Cd2Nb2O7,-2.2529965868181807,0.005409513181816614
mp-3704,Cs2Mn3Se4,-0.9390646419420494,0.0
mp-19311,Co1O6V2,-2.21933101,0.0
mp-600014,O2Si1,-3.257289135972223,0.0
mp-15840,B1Ba1O5P1,-3.1179329553645836,0.0
mp-1020124,Mg1O3Si1,-3.2182641554999996,0.005957224250073523
mp-7693,Ba1F8Tm2,-4.446698650454547,0.0
mp-14630,F1O10Si3Y3,-3.702375422647059,0.0005024825493565539
mp-29538,Ba1Cl5Gd1,-2.813934526428572,0.009553746785718837
mp-769122,F10H6Li4O3Sb2,-2.2578374811333335,0.07845246011744564
mp-733853,Cl1H1I2K2O6,-1.3592543996666666,0.0
mp-755591,Dy2O6Te1,-2.952351500555553,0.0
mp-715598,O13V7,-2.4741660446249987,0.013706908874997837
mp-28855,Cd4F6O1,-2.24176329590909,0.0
mp-13852,Ge3N4,-0.19238970142857323,0.0
mp-560333,Br10O1Ta2Te4,-1.2278531558137256,0.0006451089532895082
mp-32868,Ag2S1,-0.1701989199305558,0.0
mp-569967,Cl5K2Pr1,-2.424467699583335,0.0
mp-703342,H4O11P2Ti2,-2.5204701030764407,0.005524891710951046
mp-24433,H1K1O3Se1,-1.5607526644322924,0.015188212500160484
mp-775916,C1Li1O7P1Sn1,-2.260183508219697,0.04580490249979812
mp-17895,Be1F5K3,-3.237531339611112,0.001442290278014803
mp-559014,Ge1Nd4O8,-3.4759731065384614,0.0
mp-1008506,Ba1Ga1H1Si1,-0.4371559696874998,0.0
mp-766341,Na1O13Sb5,-1.875261822450091,0.0
mp-6687,Ba2Ho1O6Sb1,-3.10217265225,0.0
mp-7762,Cd1Ge2O5,-1.9355656810937498,0.012471169374995705
mp-757145,Cl1H2O2Sm1,-2.4098909749999997,0.0
mp-764959,F5V1,-2.8355165245833334,0.0
mp-770376,Mn2O13P4,-2.4532973266807105,0.01163704157900762
mp-19001,Mn1O3Sr1,-2.640138276896552,0.0
mp-241,Cd1F2,-2.4591480116666666,0.0
mp-32715,B36O5,-0.6321098673170723,0.016561234146340288
mp-20944,O4Pb1Sr2,-2.279400040000001,0.0
mp-767248,Fe1Li1O4Si1,-2.4892635202380946,0.001767453928728965
mp-558273,Ca3O5Si1,-3.2658427751851797,0.019748056296324517
mp-559096,H6O10Rb2S1Te1,-1.6539592777083336,0.0
mp-41219,Ba1Li1O6Pr1Te1,-2.6126580427499997,0.06595839064984865
mp-23050,Cl1Gd1O1,-3.4787337912499985,0.0
mp-706676,H3K1N1O3P1,-1.6490900054259257,0.0
mp-581413,F11Hg2Ta2,-2.9504721216444465,0.0
mp-30058,O3Sb1Tl1,-1.7149749409166666,0.0
mp-755461,Dy3O7Ta1,-3.8417687419318183,0.0
mp-558408,I4Nb4O1Te9,-0.9157776349305556,0.006613720606893124
mp-15077,Ag7As1S6,-0.2814654119940475,0.00342229178571461
mp-31770,Fe3O4,-1.6286626464285712,0.0
mp-2150,Ba1Te2,-1.3860351550000019,0.0031697916666656076
mp-627557,Cd1I2,-0.8605683614074088,0.0
mp-6633,C1N1Na1S1,-0.5799940017941809,0.0
mp-7012,F6K1Rb2Y1,-3.581324165225,0.0
mp-13947,F6Hf1Rb2,-3.7541694733333326,0.0
mp-764340,Fe1Li2O4Si1,-2.5443861370833334,0.0
mp-559786,As4Br1Na1O6,-1.6796917132543108,0.0
mp-555678,Na4O12Ti5,-3.111677267041599,0.0
mp-755309,Li3Nb1S4,-1.2840667726562494,0.0009539628124601851
mp-36066,N1O1P1,-1.3395054939087292,0.0
mp-27205,Cl2Tl1,-0.9187688999999987,0.0
mp-556468,S1Zn1,-1.0515412034375,0.0
mp-24589,Br1H1K2O1,-1.7617803179499993,0.0
mp-694888,Ba8Mn8O21,-2.5799827594827582,0.0
mp-4266,As1F6K1,-2.6053173564062497,0.0
mp-14969,Ba1Cu1Er1S3,-1.9481757602951386,0.0
mp-705588,Fe8O9,-1.4999867478676463,0.044413981176473986
mp-560785,K2S11Sn2Y4,-1.7417110622105247,0.0
mp-560818,B3F1O9Sr5,-3.3222974672222225,0.002615054722190122
mp-545500,Ba1Cl1O2Sb1,-2.499759587999999,0.0
mp-744184,Fe1Ge2O7Tb1,-2.4787634864772716,0.0
mp-5331,Al1O4P1,-2.912176883551586,0.0
mp-14650,Nd10Se19,-1.989170113949353,0.0
mp-5827,Ca1O3Ti1,-3.492382935916667,0.0
mp-559636,B3K1O5,-2.8094120850648148,0.0009223926847453533
mp-20222,In1Nb1O6Sr2,-2.983586746833334,0.0
mp-5046,Be1O4S1,-2.303511130520833,0.0
mp-756050,Cu1O3Ta1,-2.292161642966667,0.022878586500065978
mp-677490,Li4Nd3O12Sb1Te1,-2.7248823670238083,0.012659799994303677
mp-16445,Cs1Cu1Se4Sm2,-1.7276774761287719,0.0
mp-28512,Ba1Cl1O3,-1.2509544602777776,0.46621555445117124
mp-754203,Er1O3Sm1,-3.8136884161666673,0.05960141274994442
mp-753316,Ag1F5Li2,-2.217063768229167,0.03802494875080198
mp-574040,Br6K2Sn1,-1.6002172816111147,0.0
mp-676653,Hf3Lu4O12,-4.0159721792982435,0.0
mp-3751,Al1F4Tl1,-3.2556112016666674,0.0
mp-7447,Rb2Se3,-1.0801831604062495,0.0
mp-2008,As2Fe1,-0.25678360833333613,0.0
mp-1273,Cs1Ge1,-0.2117218214655172,0.0
mp-706979,H6N3O1P1,-0.7768667767857141,0.006986800492425938
mp-3978,O3Si1Sr1,-3.4425767765833344,0.0
mp-759915,Bi1Li2O10P3,-2.527765538697916,0.07026185604211754
mp-557304,Cl2O3Si1Sr2,-3.2347964783854173,0.002334977926021331
mp-560051,Bi1Rb1S4Si1,-1.091148357857142,0.0
mp-625856,H1O3Te1,-1.3385365523333328,0.0
mp-755336,I1Nd1O1,-3.0336030125,0.0
mp-561561,Cs2F6K1Rh1,-2.645757045386207,0.0
mp-770550,Al1Co1Li2O4,-2.3316480880208337,0.061861894062596345
mp-23237,Bi1F3,-2.7910530993749996,0.0
mp-759602,F2O5Sb4,-1.951917826363636,0.02467915215912568
mp-685995,O19Pb4Ta6,-2.865838671431034,0.0
mp-776200,As1Gd1O4,-2.5891447570833344,0.0
mp-703476,H16N4O7P2,-1.2383190876867811,0.0
mp-5652,O7Si2Y2,-3.5349474504545473,0.0
mp-27688,I6K2Te1,-1.0397679045740706,0.0
mp-4019,Ca1O3Ti1,-3.453014913833333,0.0
mp-20495,C1Na2O3,-1.854389074583332,0.0
mp-19386,O8Sr3V2,-3.019227163076923,0.0
mp-768153,As1C1Li2O7P1,-2.2049077990625,0.06319800812521208
mp-4527,Li8O6Sn1,-2.1435145796111112,0.0
mp-23906,H6Li1N1O6,-1.3099533950595235,0.010509829821452448
mp-568172,Ca3N2,-0.9217641895000005,0.0
mp-18968,Fe1Li2O4Si1,-2.4087033994791662,0.0
mp-552191,Ba2Bi1O6Tb1,-2.8289573621666655,0.0
mp-34735,Cd1Ho2S4,-1.8135715357142834,0.0
mp-17908,Ba2S4Ti1,-2.098654923333331,0.0
mp-639662,Cr1F5,-2.3421386862499993,0.0
mp-29177,Ba1F10Te2,-2.909257833717949,0.0
mp-570158,Cd1Cl6K1Rb3,-2.067716923613636,0.0
mp-1265,Mg1O1,-2.9992433999999992,0.0
mp-10932,Er1F1S1,-3.3242290628819426,0.002016865925788499
mp-763190,F1Li2O2V1,-2.5901591319444446,0.006646839166824255
mp-28845,F2O3Os1,-1.7103267908333326,0.001007317916682145
mp-32755,La2Te3,-1.8749492830000007,0.0
mp-763192,F5O1V2,-3.1045832248958334,0.0
mp-776870,Li2O8Sn1V3,-2.4299593261904766,0.0006372809826251975
mp-769637,Fe1Li5O16Ti6,-3.0658789739880947,0.0
mp-769210,O7Pb2Tb2,-2.476661970113636,0.0
mp-2275,F6U1,-3.484491003928572,0.0
mp-768765,B2Bi2Li2O7,-2.2551213443269225,0.054340126988894996
mp-35015,Bi1Na1Se2,-0.9343850415598056,0.0
mp-5132,O4P1Y1,-3.4853583325,0.0
mp-10914,Cu5K3O4,-1.0912370249374999,0.0
mp-540093,Co1O4P1,-2.082929135555556,0.0
mp-30993,I1La1O1,-3.15455114,0.0
mp-10428,Cu8Se6Si1,-0.31333652960416647,0.05367103901926618
mp-23672,H6N1O4P1,-1.4703073268452371,0.0
mp-758770,Li2Mg3O16Ti6,-3.297971765246913,0.01456890712965941
mp-571281,Ge3N4,-0.1843102592857154,0.0
mp-29379,Bi1K3Te3,-0.9685609105357125,0.0
mp-771241,Ag1O8Ta3,-2.941513550513888,0.01000553562498041
mp-31212,F4K2Mg1,-3.386724021785714,0.0
mp-30298,As1K1O2,-1.8939302563749996,0.0
mp-541709,Br9Nb3Tl2,-1.3144657715476191,0.0
mp-769262,K5O4Y1,-1.9764402061666666,0.0
mp-27252,Cd1I3Tl1,-0.866128981166667,0.016766175377778227
mp-530748,Al2Mg1O4,-3.347922294285714,0.0
mp-559795,Na1O6Rb7Zn2,-1.4493357693049567,0.0
mp-541950,Ga1N5O14,-0.3826566971874996,0.0
mp-695780,Li2Mn1O7P2,-2.648385591573618,0.0
mp-776732,F8Fe3Li2,-2.6877133005128204,0.023509696923007084
mp-680093,Cd1I2,-0.8711262899999999,0.0
mp-27383,Cu1Nb3O8,-2.697848952291666,0.07192611994790177
mp-675779,Li2Mo3S4,-1.072307762731482,0.0
mp-683910,Ag7P3S11,-0.23196407281109477,0.012798543055555152
mp-771963,Ba2Cl7La1,-2.835343167250001,0.01170147574999767
mp-765277,Li1O4P1Sn1,-2.392956920187074,0.005276800415974289
mp-559043,Ge1K1La1S4,-1.5924946357857144,0.0
mp-6941,N4O3Si3Y2,-2.3714320399652777,0.04115912874419022
mp-15011,B1Na1S2,-0.9053942245312498,0.010275840781186263
mp-769510,Co3Li5O16Ti4,-2.421070858571429,0.10919023535308321
mp-568100,Cl4N1Re1,-0.5455013138425997,0.03526717335334132
mp-3808,K2O4U1,-3.066663713,0.0
mp-707226,H8N2O5Se2,-0.9119173215992643,0.08857151696913444
mp-23705,Al1H6Na3,-0.2777042034655171,0.0
mp-680944,Nb2O5,-3.0347415166071423,0.0
mp-556892,Bi1In1O3,-1.796281629833333,0.0288547127499978
mp-744930,Fe1H6O6S1,-1.4026296014285704,0.03636718216803355
mp-540270,Mo1O7P2,-2.401927646791667,0.0
mp-18347,Al1K1Te2,-1.0045364553333327,0.0
mp-558383,Cr1F4Na2,-2.8583827742857144,0.0076128361905354325
mp-5706,P1Se3Sn1,-0.5223453820729169,0.0
mp-28517,I4Se1Tl6,-0.7904517293039813,0.0
mp-755015,La1Na1O2,-3.0169455616379306,0.0
mp-3442,Ca1O3Ti1,-3.538366825916666,0.0
mp-775761,Ag1Cl1O3,-0.032823460999999554,0.001904573999999304
mp-754541,O2Tl1Tm1,-2.6745754204687486,0.09960568265538638
mp-763211,F1O5V3,-2.5681668629166663,0.00132751277769769
mp-3834,Ba1O3Zr1,-3.636587338500001,0.0
mp-27752,Ge2Na6S7,-1.1480374673850586,0.0
mp-12266,Ca1Cu1F4,-3.0420017141666666,0.0
mp-18049,Ge5O25P6,-2.155072874801588,0.0
mp-27837,F2H1Na1,-2.3862414284374998,0.0
mp-15793,Li1Se2Tb1,-1.9265539136718743,0.0
mp-771082,Cr1Fe3Li4O8,-2.0577859380208325,0.00045691718756391
mp-756090,Ba1Na4O3,-1.691362962807112,0.056294382499971984
mp-767752,Li3O10V5,-2.449692295277779,0.05878545208334253
mp-557104,Al1B2Li1O5,-2.9895364017129618,0.0
mp-1019895,B1La3N2O3,-2.8107895229629634,0.03220058101843885
mp-675832,Ce1N2Sr1,-1.3845337431249973,0.0
mp-733858,Ca1H4O7Se2,-1.344797283883944,0.014676886428399578
mp-770514,Li5Mn1O4,-2.016529270834769,0.03741085399999093
mp-29128,K2O9Te4,-1.6768351080777772,0.0
mp-764991,Li3O29P8V3,-2.519271170242249,0.037293524856222955
mp-18781,Cd1Cr1O4,-1.6284353716666657,0.0
mp-11691,Hg1Nd2O4,-2.7926756625,0.0
mp-767610,F1Mn2O3,-2.0304893866020115,0.05115495763066846
mp-27914,Bi1Na3O3,-1.7168546605911328,0.0
mp-19380,Cr1Hg1O4,-1.3011641295833318,0.0
mp-643248,Al1Cl1H4Na2O4,-1.960569796508621,0.01091228937889858
mp-740707,Au1Br1C2H8N4S2,-0.4311742214583332,0.028656802731859148
mp-759651,Br3H6N2Sc1,-1.1006107504166665,0.0
mp-15254,Al1F6Li3,-3.4886862553333335,0.0
mp-557125,Cl1F6K3Re1,-2.6137112337499997,0.008721280454452408
mp-568644,In1K9Se7,-1.2327974147542888,0.0
mp-29286,F4Sb1Tl1,-2.3362365070833326,0.0
mp-4495,K1Li1Te1,-1.2092002040833336,0.0
mp-11740,K1Nd1Te2,-1.6850425553125028,0.0
mp-755060,Cs2O1,-1.1176595182040225,0.0
mp-28296,Ba3Ga1Sb3,-1.0684657064285747,0.0
mp-695048,Cd1F1Gd1O6Ti2,-3.1691026431060605,0.14172244022646588
mp-768865,Ge1Lu2O5,-3.399029277604165,0.010703635429867298
mp-777694,Li4O16Ti3V5,-2.7596893472619044,0.01611711053497292
mp-771698,Al1La1O3,-3.6627661057499994,0.0
mp-769396,Ge2O7Y2,-3.0302317676893935,0.0
mp-758251,Ag1F8Li5,-2.624530948095238,0.037173965714359776
mp-766308,Ba1Ca1I4,-1.9092132983333332,0.027401498749999753
mp-721075,Ga2H11O13P3,-1.718309819784484,0.02262151698275996