Material ID,Compound,Energy,Hull Distance
mp-754840,As1O4Ta1,-2.5696276141666665,0.039362991249743594
mp-23093,Bi1Nd1O6Sr2,-2.791480799333334,0.0
mp-560611,Cu1Ho1S2,-1.6230253890625006,0.0
mp-19156,Ba1Mn1O3,-2.593575868896552,0.0
mp-540645,Cl1Hg3O1,-0.8053129689285713,0.004451284833331038
mp-553432,O2Ti1,-3.1723574166666677,0.0
mp-562613,O5P2,-2.106176729778912,0.0
mp-556524,Nb2O7Sn2,-2.4574691055681814,0.09167760647729105
mp-1016884,Ca1Ge1O3,-2.374555992666667,0.0
mp-642821,H5K3Pt1,-0.4410176094444438,0.011139454444444752
mp-7575,Li1N1Zn1,-0.4234695334722218,0.0
mp-626620,H1O1Rb1,-1.5111098420833322,0.0
mp-753445,F2O5Sb4,-1.9703345343181804,0.02467915215912568
mp-558016,As1Ca1F1Mg1O4,-2.8831878425000004,0.0
mp-557989,K3O14Sb5,-1.9693092708749989,0.017626307159049306
mp-645172,As2Cs1Se3,-0.5581209122395828,0.0
mp-24277,Gd1H4K1O9P2,-2.450310680384454,0.02357082352951026
mp-16992,Ag3Na1S2,-0.4531672921874967,0.0
mp-570227,Be1Cl2,-1.8314231581944445,0.0
mp-557845,Na2O1S2Ti1,-1.9900046755986587,0.0
mp-3668,Cd1Ge1P2,-0.15083163273809497,0.0
mp-758836,Li4O8Ti3,-2.9903298122222215,0.058455985555561085
mp-770830,Bi1Ho1O3,-2.8061105949999985,0.031548825000024296
mp-561241,F17O2Sb3U1,-2.8463340480434787,0.0
mp-36864,Li2O3Ti1,-2.8968348541666664,0.0
mp-13190,F6Ga1K1Rb2,-3.067999018475,0.0
mp-541175,Co1I12Sc7,-1.388899448,0.0
mp-19194,Ba1Mn1O7P2,-2.9093125891679734,0.0
mp-4385,C1Cd1O3,-1.488619369499999,0.0
mp-672376,Cl7O3Re2,-1.420797266458333,0.007242876354196663
mp-768081,C1Fe1Na2O7P1,-2.2371508193667893,0.0
mp-6800,K1Li1O4S1,-2.30654669135119,0.0
mp-560560,Cd1O3Si1,-2.3746085848333336,0.0
mp-5795,Ca1Mg2N2,-0.9290357000000036,0.0
mp-24240,B12H12I1K3,-0.4562752955982131,0.009041460000000803
mp-11118,Cd1Cs1Pr1Se3,-1.5927398424937138,0.0
mp-553961,Nb1O4Sc1,-3.4633933283333342,0.0
mp-12670,Ho2O2S1,-3.5995911681249995,0.0
mp-13287,Ba1Cu1F1Te1,-2.131591924791666,0.0
mp-27420,Bi1F6Na1,-2.4900080576939656,0.0
mp-31468,Ca1Li1N1,-0.7686410261111115,0.0
mp-686540,Al2F3Na3O8P2,-3.0721468886624255,0.0
mp-561197,F5Ta1,-3.4064444978888893,0.0
mp-777623,C4Mn2Na4O16S1,-1.9825194050071842,0.028515718525419495
mp-769268,O9Sr4Ta2,-3.3961967760277787,0.0
mp-541686,Ga1K3S3,-1.3316594586964285,0.0
mp-10616,As1Ba1Li1,-0.9433627327777779,0.0
mp-770898,Nb2O16Ti3V3,-2.946630920000002,0.10277510790802917
mp-4586,Al1Li1Te2,-0.9251746466666662,0.0
mp-541013,I4Ti1,-1.071706437666665,0.0
mp-755954,Ba1I6Sr2,-1.9749471370370368,0.010380434166666872
mp-554699,Ge1O3Pb1,-1.9266465224999971,0.0
mp-23819,Al2H9N1O11P2,-2.0323014322214292,0.009027351270819963
mp-541289,S3Y2,-2.382070257687502,0.0
mp-752949,Bi1F1O1,-2.1967313616666666,0.0
mp-30100,B2Li2Se5,-0.773666401302084,0.0
mp-555934,F2V1,-2.999952785,0.0
mp-19230,Cr2K3Na1O8,-2.0523851861108375,0.0
mp-771912,C4Cr2Li4O16S1,-2.0806802409799383,0.07009243259202981
mp-23918,Ga1H4Na1,-0.20913664814655183,0.0
mp-677028,Bi1F3Rb1,-2.5469836329999995,0.1446360612895127
mp-1020118,Mg1O3Si1,-3.209969517375,0.005957224250073523
mp-771055,Eu1O3Zr1,-3.5442900695000006,0.0
mp-559764,Cl1Nd3O8Si2,-3.59900816125,0.0
mp-756638,Nb1O4Rh1,-2.2133346449999998,0.03771308739580389
mp-31215,Ag1F6Pd1,-1.5411022170833335,0.0
mp-565679,Hg4O9Se4,-0.9553058622426479,0.013772675197328714
mp-15438,O11P4Zn1,-2.217356826994047,0.0
mp-19234,Ba2F4O3W1,-3.3555358691249992,0.01760300849977057
mp-27164,Fe1P4,-0.36438044171428413,0.0
mp-769333,Ca4O9Ta2,-3.4464453978111096,0.0
mp-21496,Cu1La4Li1O8,-3.16484426452381,0.013795842435169752
mp-13676,O4P1Tl1,-1.7943391138293663,0.0
mp-27396,Cl2Ni1,-0.9834993083333335,0.0
mp-776873,Cr2O3,-2.317448365749999,0.0
mp-755790,Hf1O3Pb1,-2.836054380500002,0.00888730318748614
mp-29369,F29Sb7,-2.646841459027778,0.0
mp-553974,Ba7Cu1F34Fe6,-3.3016154959375004,0.0007324447395327857
mp-5193,S3Sr1Zr1,-2.063285151687501,0.0
mp-560456,Hg2O7Te2,-1.1697325122348496,0.0182318598863644
mp-571011,Cs1I4,-1.018802099086207,0.0
mp-22989,I1Na1O3,-1.0397172809999986,0.0
mp-568545,Cd4I3P2,-0.45996355950396745,0.022942605833333147
mp-18639,La2O7Si2,-3.6650953203409076,0.0
mp-764013,Cr1Li5O8V3,-2.2901836506862736,0.0847684918627586
mp-767088,Li3S18Sb11,-0.6846394039062496,0.005664960156248844
mp-10289,B1C1Ca1,-0.3311626726666688,0.20480682125000058
mp-743761,Fe3Li1O8P1Si1,-2.286471665476189,0.10318538196603962
mp-29585,As2Cd1K4,-0.5479524414285696,0.0
mp-644431,Cd2Cl1P3,-0.45379773857142663,0.009067961458332293
mp-560387,Al2Cs2O9P2,-2.9902765377397382,0.0
mp-541954,Fe2H4O9P2,-1.9889228639285714,0.0
mp-555740,O2Si1,-3.023513293333334,0.0
mp-29440,Cu1I7Mo3,-0.6305609837500001,0.0
mp-761869,La5Li3O12Sr3,-3.271287947028987,0.03762364282609284
mp-16777,Al1Na1O7P2,-2.9021063351789436,0.0010359871209482724
mp-763198,F1Li2O2V1,-2.617728582361112,0.006646839166824255
mp-766942,F5Li2Mn1,-2.9422689036997127,0.0
mp-16863,P1Rb3S4,-1.1753927391220227,0.0
mp-754999,Cl5La1Sr1,-2.6461222953571473,0.04997082071429101
mp-560904,Cd1Hg2O6S1,-1.3781111487500006,0.0
mp-625788,H1La1O1,-2.100861303035716,0.0
mp-11742,Cs1Nd1Te2,-1.6140787246910921,0.0
mp-721312,C1H2Na2O4,-1.8096901531226048,0.003871705324145738
mp-11121,Cd1Cs1Se3Tb1,-1.586282864725515,0.0
mp-752413,Ca2Hf1O4,-3.670619502857142,0.003983531785711948
mp-15179,Pr2S3,-2.3647651148541655,0.0
mp-628305,K2Mn1Se4Sn1,-1.0181253567882536,0.0
mp-7638,Li1O8Ta3,-3.2543654452777773,0.0
mp-27194,I2Sn1,-0.7785139894444444,0.0
mp-775811,Fe1Li1O4V1,-2.163502145119047,0.010418793631147696
mp-763317,Ge1Li1O5V1,-2.2462121177604164,0.03182323124911646
mp-754300,Bi1Ho1O3,-2.792290527499999,0.031548825000024296
mp-560119,Cl2F1Tb1,-3.300696261875,0.004334387500572134
mp-40251,Ba1La1Mg1O6Ta1,-3.432195166233334,0.07964159499971117
mp-756299,Hf1Li4O4,-2.7605738014814807,0.05670239388888297
mp-752695,Ca2I6Sr1,-1.9052205351851854,0.032362992458701986
mp-756448,I5La1Mg1,-1.625035915,0.014744466428569985
mp-768159,C1Li1O7P1Sn1,-2.2568254795833336,0.04580490249979812
mp-17704,O5Si1Tm2,-3.7290778971875014,0.003673415703073779
mp-776466,Ba2N2O11Ti6,-3.182684520119047,0.018898314195976155
mp-28716,Cl4Cr1Na2,-1.7750416018719213,0.03692621998725697
mp-560570,Al6F21Na1Rb2,-3.739636558295977,0.0
mp-755659,Dy1H1O2,-2.8748584565625013,0.0013657565625195822
mp-636380,Li1Mo1O2,-1.9850623561904754,0.037224282961117794
mp-568224,Cu1Se6Sm3,-1.7022769531874986,0.0
mp-12490,Cd1Cs1Ho1Te3,-1.2875610029885063,0.0
mp-767407,Li5S1Sb1,-0.9418014305952376,0.05033987999999961
mp-23018,Bi1O4Sb1,-1.8505547391666657,0.0
mp-27336,Br3Cs1Cu1,-1.1655201474999983,0.0
mp-672972,O3P1Sn1,-2.42852061837912,0.3098804222143009
mp-706588,Na3Nd1O8V2,-2.659362035153941,0.01263182500012253
mp-675813,O9Sm2Th3,-4.129643274910715,0.27333392922987443
mp-561185,Cs2Hg3S8Sn2,-0.785250333787361,0.0
mp-561176,F13O1P1Sb2,-2.6868196295343134,0.0
mp-555871,Cu1Na2S3Sb1,-0.8979774060683502,0.0
mp-676646,O19Tb2Zr8,-3.7443278346982756,0.0
mp-561447,Al1B8K3O15,-2.8767976504104933,0.0
mp-27147,Bi1Br6Rb3,-1.780562183125,0.0
mp-773205,B2Li1Mn1O5,-2.4940482946775213,0.043033760240722946
mp-557744,B1Na1O5U1,-2.9450254224999988,0.0
mp-558772,Rb2S4Zr1,-1.5586469919642856,0.0
mp-560045,C1Cl1H5N2S1,-0.514444189625,0.06740661856930323
mp-571189,Cu1Hf2Na1Se5,-1.414849818696719,0.0
mp-30219,Cl4Ga1K1,-1.8906384553750009,0.0
mp-18762,Co1Na4O3,-1.4627899041271553,0.0
mp-5572,Ho2O13Te5,-2.200241331604167,0.0
mp-755141,Ho1Na1O2,-3.1221192249999987,0.0
mp-31455,Ru1Sb1V1,-0.2125935691666617,0.02525778666666645
mp-758953,Br1H12N7P2,-0.5589670312121207,0.008483046893939498
mp-6361,Na1Nb1O6Sr3,-3.062646013095611,0.0
mp-555076,F6K1Na1Sn1,-2.94000963736111,0.0
mp-765775,Ge1Li2O10Si1V2,-2.455333402291667,0.04627054437418865
mp-29314,Br3Rb1V1,-1.5992613691666662,0.0
mp-555077,F3I1Sn2,-2.12192835125,0.0
mp-721300,B5Ca2Cl1H2O10,-2.770072726833333,0.004138943174929466
mp-13542,Ge1Te4Zr1,-0.6019163933333355,0.0
mp-760411,Bi2C1O5,-1.4549816796874993,0.0
mp-21497,O5Pb2S1,-1.5486484078515623,0.0
mp-776281,N2O1Zr2,-2.444620943999999,0.0
mp-570076,Cd1Sn1Te4Tl2,-0.519257457291666,0.009586570937499928
mp-12787,O2Si1,-3.043045834999999,0.0
mp-643069,H1I1Li2O1,-1.6711522960833327,0.0
mp-29988,Cl5Cs1Pd2,-1.0185616912500013,0.004016094687496308
mp-766328,Ag7O25Sb9,-1.438179511351626,0.05218961024385766
mp-2667,Au1Cs1,-0.30728026396551744,0.0
mp-13956,Ag2P1Se3,-0.16940802690228196,0.0
mp-677335,Ga1O4P1,-2.329121727996032,0.0
mp-689943,Co1O4P1,-2.06979758263889,0.0
mp-556986,B2Cl2Er2O5,-3.270427389621211,0.0
mp-18383,K3Nb1S4,-1.470478333343749,0.0
mp-755357,As1Nd1O4,-2.5937653399999996,0.0
mp-752706,Ce1O24Zr11,-3.76384586402778,0.017454136805514824
mp-542772,Ag1Cl2Cs1,-1.5190670011494254,0.0
mp-772060,Fe3Li3Nb1O8,-2.12198532,0.08397359500006256
mp-773599,Na1O8Sb3,-1.8878908351293102,0.018262807500009377
mp-757388,H6N1O4P1,-1.4491845890277766,0.0
mp-760361,Cl1H3N1,-0.5001387092500004,0.06581581459133279
mp-768149,Dy1In1O3,-2.8951167473333346,0.004685343666790587
mp-24412,Al1H6K2Na1,-0.3424970752551726,0.0
mp-20727,O6Pb1Sb2,-1.6065231866666667,0.0
mp-561166,Ge2Na2O7Zr1,-2.572491658279453,0.0
mp-753803,Ca1Cs2O2,-1.8680823389999943,0.09294220149996839
mp-569531,Br3Cu1Rb2,-1.5032727037499996,0.004980199583332734
mp-19006,Mn1O1,-1.9770676377155176,0.0
mp-1018025,Ag1Lu1O2,-2.706731598333331,0.0
mp-768301,B4Ho2O9,-3.2895511423611103,0.030715381777793028
mp-768231,H1O2Y1,-2.7699131796874994,0.0
mp-753318,B1Dy1O3,-3.4670835020833337,0.0
mp-2319,Os1P2,-0.5207948822222228,0.0
mp-27140,K2O11Sb4,-1.9693934530588237,0.0
mp-505034,Cs2Mn1S2,-1.1514100930086208,0.0
mp-505431,As2In1K2Li1,-0.5508561190833335,0.0
mp-675759,O27Ti6Tm10,-3.6796542926259685,0.10082372494184445
mp-24214,F1H3K1O4P1,-2.1330369003142855,0.0
mp-755798,O3Pb1Zr1,-2.741873307687487,0.026087333438022144
mp-23262,Bi2O3,-1.3545849704999966,0.0
mp-19956,Ba2F1In1O3,-2.864597325952381,0.0
mp-10969,C1Cd1N2,-0.07085422937500052,0.0
mp-600186,Br4Cs2Mn1,-1.7793471041133004,0.0
mp-773514,Co1Li2O3,-1.6337701363194448,0.033416254722230455
mp-19277,O5S1V1,-2.071603992410713,0.0
mp-27355,F2O1Pb2,-2.0434024754999967,0.0
mp-558362,Ca1Ge1Mg1O4,-2.8646957249999994,0.0
mp-756639,F5Li2Nb1O1,-3.2596985170370365,0.012854117695491298
mp-772435,Al2Fe1Li3O6,-2.6681029593750005,0.020300400833151617
mp-17481,Mg4O9Ta2,-3.115715456977779,0.0
mp-29892,Li1O8Sb3,-1.7151935426388885,0.0
mp-2895,Mg2O4Si1,-3.210667007142856,0.0
mp-19417,Fe1O3Ti1,-2.5536405403333333,0.0
mp-643276,H7Li1Mg2Ru1,-0.4505020356439392,0.0
mp-695316,Al1Br1Ca2H10O8,-1.917535839204546,0.0
mp-28257,F2O1S1,-1.9542850757812502,0.0
mp-752849,O7Pb2Y2,-2.3432256168181804,0.0
mp-6571,As2Ba1Cu1O7,-1.972983216022726,0.0
mp-574620,Cs1Se3Y1Zn1,-1.6464527302810705,0.0
mp-30252,Ca1Na10Sn12,-0.2632424393703149,0.0
mp-6704,Ba1Cu1Nd2O5,-2.965858518749999,0.024041020277725995
mp-777474,F4Fe1Li1,-2.7841545405555563,0.002276242685136154
mp-766336,Ba6Ca11I34,-1.8889600113725487,0.09428237147058828
mp-31309,In1Rb1Se2,-1.1508356211718755,0.0
mp-6031,Li16N8Nb2O1,-1.0093168848456784,0.0
mp-17213,Cs4O4Sn1,-1.6285115058333335,0.0
mp-27556,Cs1Nb1O3,-2.8313168631810335,0.0
mp-557691,La2O3,-3.8453026825833336,0.0
mp-776023,Cd1O3Si1,-2.3478096523333307,0.0
mp-755318,H1O2Sc1,-2.7699637446875,0.0
mp-28102,Ba3O11Te4,-2.236284009606481,0.0
mp-720312,B5H3Na2O10,-2.4304310995545975,0.002953496074553996
mp-690544,Fe1Ga2O4,-2.061807238928572,0.0
mp-557260,F7Rb1Sb2,-2.6541355443750008,0.0
mp-770884,C1Li2O7S1Sn1,-2.001549534097221,0.09248124203277956
mp-554142,Ge1O3Te1,-1.6942205242592594,0.680642655750016
mp-616564,I1O6Pb1Rb1,-1.2548639438888887,0.0
mp-3788,Al4O7Sr1,-3.465275141909722,0.0
mp-29959,B1Se3Tl1,-0.29764898893749886,0.0008218894222224548
mp-6929,As2Ca2O7,-2.5125156292045445,0.0
mp-768092,F3Li1O4S1V1,-2.4297211386458324,0.04749910188331512
mp-10191,Lu2Mg1Se4,-1.9513892027678565,0.0
mp-771043,O7Y2Zr2,-3.8073542318181834,0.07966861181819306
mp-541537,K2O4Si1Zn1,-2.4638542983750003,0.0
mp-570084,As1Hg3I1Se4,-0.4655365999305556,0.0
mp-570959,Cd1Dy2Se4,-1.7762460751785707,0.0
mp-554012,Cl1F1O2S1,-1.622937429625,0.0
mp-560717,Ag2C1O3,-1.0609807199999994,0.0
mp-23985,Br1H6Li1O7,-1.0794909456388884,0.0
mp-768877,Ge2O7Sn2,-1.7480108939393828,0.03875707971010523
mp-27386,Cl11Hg5Tl1,-1.048270976960784,0.0018708566176422307
mp-560767,K1Na1O3Ti1,-2.79370456152251,0.0
mp-707508,H5N5Na2O12Ru1,-1.097552920724138,0.043770156450049454
mp-556902,K1Li4Nb1O5,-2.4961389625530304,0.0
mp-697084,H1I1O1Pb1,-1.2286247115624995,0.0
mp-561076,Ga1La3O1S5,-2.3953455131874994,0.0
mp-29628,Na4S4Sn1,-1.141544546805556,0.0
mp-568546,Br7In5,-1.0935551791666664,0.005088689687499907
mp-15549,Al1F6K2Li1,-3.465729003783333,0.0
mp-552857,Bi2I1O4Tb1,-2.339852632083333,0.0
mp-555074,As1Br1Hg3S4,-0.49243550472222236,0.0020821329166668986
mp-754060,Bi1Li7O6,-1.8614762420833324,0.0
mp-505400,Ba1F10Zr2,-4.09531849,0.0
mp-774387,F11O1V4,-3.131565337890626,0.001024929687464482
mp-695278,Ba3La9Mg7Nb5O36,-3.369046216833334,0.10037962516566855
mp-11055,Cs1Sn1,-0.4108070918750002,0.0
mp-3733,Be1F4Tl2,-2.7046155184523815,0.0
mp-698611,Bi28Mo2O47,-1.6769360374188313,0.02929910178571197
mp-672248,As1Cl13P1Ta1,-1.4366698377797622,0.0
mp-554905,Ca1O8Si3Zn1,-3.1082950357692303,0.005101306089736878
mp-722272,C3H12Li2N6O7S1,-1.0678717920698917,0.0013272111284749603
mp-777730,B8Bi1Li3O15,-2.6524212224382717,0.06514417388881205
mp-773982,Fe4Mg3O7,-2.1261652041071417,0.009064169999991125
mp-7610,Ca1Li2O4Si1,-3.0310051789583325,0.0
mp-3626,O3Sr1Zr1,-3.6135591135,0.0
mp-556841,La1S3Tm1,-2.4484279595416676,0.0
mp-694876,La1Na1O12Sr2Ti4,-3.486793404318966,0.009273851724333326
mp-721896,C1H4N2S1,-0.3798089750781246,0.0
mp-7181,Cs1O10Sr2Ta3,-3.356903336172773,0.0
mp-27407,Be17Ca12O29,-3.1813591077370695,0.006492358448256176
mp-16970,Na2O5Si2,-2.9045152799281606,0.0
mp-558523,Au1Cl1F3P1,-2.038734015138889,0.0
mp-769578,C4Li4O16S1V2,-2.092065672253086,0.06657240814875215
mp-18199,As3O1Sr3Ta1,-1.5542296373437505,0.0
mp-580631,Cl6Cs2K1Tb1,-2.5159444413227017,0.0
mp-764354,F5Li1Mn1,-2.6077388530377683,0.015138145505959853
mp-561256,Ba2F6O1Ti1,-3.990018235708334,0.010486773498753621
mp-556878,Bi1O5P1Pb1,-2.2287825552678573,0.0
mp-776593,Lu1O3Sc1,-3.98370952225,0.040151657625067116
mp-28127,Na2S5,-0.6068315702232141,0.0
mp-569405,B3H5,-0.07412543827651714,0.011666799408928424
mp-549158,Cu1In1O2,-1.4851750106249995,0.005584161174833069
mp-23193,Cl1K1,-2.175260748125,0.0
mp-768234,Hf1La2O5,-3.967235700468751,0.0230981768749583
mp-22003,N3Na1,-0.16551458656249984,0.0
mp-753183,Ca1H4O6S1,-1.9364961689583329,0.017269113750121672
mp-23947,Cs3H5Mg1,-0.29033309141283603,0.0
mp-23505,Br6K2Te1,-1.4304612536296295,0.0
mp-554320,O7P2Pd2,-1.9057291720833327,0.012638879090910781
mp-555259,O8Pb1Te2U1,-2.2535770209027777,0.0
mp-27126,Cl8Mn3Na2,-1.6881637759151196,0.0
mp-705676,K4Mo1O8,-1.155436765307692,0.48332100923075605
mp-554134,S1Sn1,-0.3929076114062511,0.0
mp-27180,Br1Nd1S1,-2.3490027076041664,0.0
mp-769368,O3Rb4Sn1,-1.5209011401562496,0.0
mp-560104,Ge1Li1O5Ta1,-2.7609827561979152,0.0
mp-755705,I5La1Sr1,-1.8952696571428578,0.027997881071426534
mp-637206,Al1Bi1Cl4Se1,-1.5890507871205364,0.0
mp-557894,O2Si1,-3.2521638110416657,0.0
mp-31135,Si19Te8,0.0151680274074082,0.03487565129629723
mp-771853,Cr3Mn3Nb2O16,-2.249991093908046,0.07119138640623124
mp-28556,Cu1Na3O3,-1.451308787986454,0.0
mp-754846,Ce2Nd2O7,-3.6709301154545475,0.048389709318155644
mp-36165,Na10O9Zn4,-1.5529157923913046,0.0
mp-775492,Li2Mn1O8V3,-2.411432463721264,0.00892360272369024
mp-560404,H1In1O4Se1,-1.5276329350372018,0.0
mp-626014,H5I1O6,-0.9574616659374993,0.01556840468749865
mp-767145,Mg8O16V5,-2.798361526896551,0.0419201800002807
mp-540789,I2Pb1,-0.8605902400000028,0.0
mp-6812,Ba1K1O4P1,-3.044573143047619,0.0
mp-755138,In1Nd1O3,-2.785820340499998,0.01488043175001188
mp-6596,Al1Mg1O5P1,-3.1593658186979177,0.0
mp-645301,Co1K2O10P2W1,-2.4301155694553565,0.0
mp-752463,N1Nb1O1,-1.9127900208333344,0.0
mp-776141,Co2Fe3Li4O16Sb3,-1.8199034869047617,0.21357393660712987
mp-624397,C1Si1,-0.17201324420454578,0.0
mp-22983,Al1Cl4Li1,-1.8320611681944439,0.0
mp-697263,As1F6H2Li1O1,-2.3092132988257585,0.001312513278621323
mp-704637,Nb12O33W1,-2.9554730199728256,0.040344348641299446
mp-17823,B3S10Tl3,-0.42776509066406376,0.0
mp-6964,Na1O2Tb1,-3.1332455672629305,0.0
mp-557090,Au5Bi2F21,-1.7567057495535718,0.0
mp-761592,Co1Fe2Li3O6,-1.8689538056250008,0.012772724166666785
mp-12807,Al1K1O2,-2.9113241144999997,0.0
mp-568137,Cl7Cs3Mg2,-2.2883837453160925,0.022690240000003154
mp-23165,Br3Pt1,-0.43163904624999816,0.0
mp-23321,Cl6O1Sr4,-2.8419607945454533,0.0
mp-3079,Ca1O11Ta4,-3.423567047927083,0.0
mp-5012,Li2O3Si1,-2.880743560694446,0.0
mp-763240,Co1Li1O4Si1,-2.3272306426190474,0.04657210197674796
mp-705854,Ca1H10N1O12P3,-1.8927536380555554,0.05432999500040757
mp-23049,Cl3K1Mn1,-1.8411291591465528,0.0
mp-600078,O2Si1,-3.022211565185187,0.0
mp-4511,La2O2S1,-3.5590550481250007,0.0
mp-555443,F2N1P1,-1.922135921556547,0.0
mp-23948,H5Mg1Rb3,-0.28842266388888876,0.007775734907407313
mp-17009,Ba3O9Te2,-2.16746188357143,0.0
mp-27501,Cl6Cs2Th1,-2.4090997538888876,0.0
mp-31415,La3O7Ta1,-3.6877974988484823,0.0
mp-19188,Ba3Mn2O8,-2.4248022731432495,0.0
mp-600059,O2Si1,-3.0324092093137263,0.0
mp-28274,Ba3F12In2,-3.571297145784314,0.0
mp-17691,Cu3S3Sb1,-0.2652555466998661,0.022098066318680498
mp-776283,Co3Li4Nb1O8,-2.0374988695833327,0.060196905515159216
mp-554116,Ba1Br1F5Pb2,-2.954350910833333,0.0016734454497190478
mp-6076,B3Ca4La1O10,-3.3767792098611107,0.0
mp-29531,Bi3Cs1S5,-0.6823240126736102,0.0
mp-720593,B5H5Na2O11,-2.2783023516385557,0.010775465787021193
mp-757173,F1O7Sb5,-1.7762194479807691,0.052667793124977234
mp-6499,B1Ba1Li1O3,-2.9567078370833335,0.0
mp-757084,O3Rb3Sb1,-1.7259971426785714,0.0
mp-755941,O7Sm3Ta1,-3.6624211679393928,0.0
mp-23261,I2O5,-0.7678590571428552,0.0
mp-18195,Lu2O5Si1,-3.7336856982291806,0.0
mp-13944,Al1Li3N2,-1.0450837983333336,0.0
mp-560833,B3Cl1O10Pb6,-2.0568046262499946,0.0
mp-721463,H2K2O7P2,-2.3313354354935893,0.031271304614969554
mp-762644,Fe1Li1O4Si1,-2.510893323809524,0.001767453928728965
mp-6109,Ca1O5Si1Ti1,-3.476996834010418,0.0
mp-558891,O2Si1,-3.032654714166666,0.0
mp-556601,B1Bi1O4Pb1,-2.099030331309522,0.0
mp-769211,O7Pb2Tb2,-2.5523387510227264,0.0
mp-1002063,S2Sn1,-0.39666964854166525,0.0
mp-769271,O9Sr4Ta2,-3.427753929361112,0.0
mp-6179,K1Li1O4S1,-2.299898444011903,0.0
mp-672289,Ge3N4,-0.24778107500000093,0.0
mp-34210,Al2O4Zn1,-2.8913172885714276,0.0
mp-757466,Bi1Li3O7Si2,-2.6401737399679486,0.0758369461849809
mp-626378,As3H1O6,-1.5803079844999999,0.0
mp-22756,K2O3Pb1,-1.5912537545416665,0.0
mp-775485,Bi3O7P1,-2.080539872694806,0.0
mp-616185,Cl4Rb2Zn1,-2.0097077025000005,0.0
mp-568909,Cl4Cs2Mg1,-2.2970573634729066,0.000818052857142553
mp-560010,B2Ga2O7Rb2,-2.5203395942948705,0.0
mp-769485,C1Mn1Na2O7P1,-2.2972570658610425,0.0
mp-23054,Bi1Na1O3,-1.3139249654999987,0.0
mp-699284,H1Li2N1,-0.5742408469791669,0.0
mp-558415,Cu1K3P2S7,-1.0200631305801282,0.0
mp-27385,Cl4K1Tl1,-1.5440190234305582,0.0
mp-758004,K3Nb7O19,-2.96066895100862,0.0039415981567155565
mp-15437,Mg1O11P4,-2.700712704036458,0.0
mp-12263,Au1F4Li1,-1.8949151290277773,0.0
mp-1009639,N1Pr1,-1.4268663452083317,0.0
mp-642844,Ba1Br1H5O3,-1.699365447375,0.0
mp-771295,B1Li1Mn1O3,-2.4358504396551717,0.0
mp-1018721,Hf1O2,-3.8640774450000017,0.0
mp-757587,Bi11Dy5O24,-2.3585699288750006,0.0365828439061918
mp-1019747,Ca3K2O10Si3,-3.2075756704722216,0.005149942586245102
mp-770210,Ca1O4Y2,-3.6440196485714296,0.03968531142859482
mp-555173,C1O5U1,-2.4915309253571456,0.005631210357152432
mp-677042,Na7O24P1Si5Zr4,-3.1326823746145216,0.005401604602223126
mp-3647,Ga1Li1S2,-1.187989849322916,0.0
mp-689979,Fe1Li1O7P2,-2.367000428749999,0.0
mp-695214,Ba9La3Mg5Nb7O36,-3.290730786166668,0.047237066833123245
mp-765476,Ho3O24Y13,-3.9188339391249984,0.0006036466710440891
mp-560794,Ba1Nb1O8P1Te1,-2.740115653754959,0.005272108537698846
mp-7603,F6Li2Ti1,-3.4880680416666667,0.0
mp-3771,Mg1O3Ti1,-3.249880484333333,0.0
mp-744001,C6Cl2Fe2H13N1O11,-1.1108022523214296,0.0905992345674481
mp-558804,B3Cs1Ge1O7,-2.644510089971264,0.0
mp-505088,I1Nb1Te4,-0.6916008619444453,0.0
mp-554610,F11Pr1Zr2,-4.149495188035714,0.0