Material ID,Compound,Energy,Hull Distance
mp-768991,Bi2C4Li4O16S1,-1.946238573734567,0.07523629370384949
mp-561318,Al1Ba2Cu2F11,-3.2448363483854163,0.0005923068816353627
mp-605108,Al2H11O13P3,-1.9388061671982757,0.01272056872164127
mp-540586,O3Sn1Tl2,-1.3104908279166665,0.0
mp-4690,K3O8Ta1,-1.7536105999236107,0.01577156406246753
mp-27229,O15S2Sb6,-1.4791324193750015,0.0
mp-6702,In4Na7O32P9,-2.5862660121319627,0.0
mp-777679,F4Fe1Li1,-2.763034579305556,0.002276242685136154
mp-6492,Ba2O6Sb1Y1,-3.073364233499999,0.0
mp-17816,As1Na5O5,-1.8701510272178685,0.003379696818195105
mp-34296,Fe1O2Zn1,-1.6935246685714276,0.12370862999998855
mp-18090,As3Ba3O1Ta1,-1.5377921399791656,0.0
mp-650841,Br2Ga1,-1.1789603819444443,0.0
mp-571193,Mn1P4,-0.3512699807775036,0.0
mp-600029,O2Si1,-3.027747012222223,0.0
mp-768972,Ba3Cl12Y2,-2.802303614019607,0.05702025882352924
mp-557810,Ba1F8H6,-2.3305347433333337,0.0
mp-560144,Br5K2N1O1Ru1,-1.3240941217,0.0
mp-757785,Bi12O19Pb1,-1.6179014138281245,0.029382588935540133
mp-552098,Bi2O2Se1,-1.1149479908124988,0.0
mp-769307,Ca4O9Ta2,-3.465034002311117,0.0
mp-7295,Cr5Rb1S8,-1.1228279545535733,0.0
mp-28277,I5K2Pr1,-1.7980733783333314,0.0
mp-23457,Br2N1P1,-0.48212464803571464,0.0
mp-558958,H2O1,-1.0413873655555546,0.0
mp-555267,Br1Cu1Hg1S1,-0.5587916382812503,0.028853436458334825
mp-675230,La1Na1S2,-2.12431462015625,0.0
mp-40668,Co1H1Na1O7P2,-2.2980341639095854,0.0
mp-555438,Al1Ba3F9,-4.086250169519231,0.005851553749940636
mp-1019777,B2K2La2O7,-3.152323649083333,0.0
mp-755756,O2Te1Y2,-3.2733122123333316,0.0
mp-32028,Mn1O3P1,-2.39069325948614,0.32240412843623895
mp-758945,Cu1H1Li5O4,-1.729746162537878,0.08071882943268188
mp-19207,Co1O6Sr2W1,-2.607740887583334,0.0
mp-722188,Ca4F1H16Na1O28Si8,-2.4810318286013664,0.016537420797389707
mp-1986,O1Zn1,-1.6393762400000007,0.0
mp-545603,Ba2Bi1O6Sb1,-2.4466154894999996,0.0
mp-559385,Ho2O4Sr1,-3.6941434124999994,0.001078545357108242
mp-762694,Fe3Li3O10Ti2,-2.4317769124537043,0.05255202976204624
mp-770811,As2O7Si2,-2.186156056439396,0.06089603522727187
mp-554882,Cl1Cu1Dy1O6Te2,-2.0000436798484853,0.0
mp-755311,Lu1Na1O2,-3.2462782060129305,0.0
mp-680683,B9Cs1O14,-2.5818667357291667,0.0
mp-29320,O8Se1Te3,-1.4130110647786456,0.00971263562499954
mp-29839,Bi2O5Se1,-1.2552121489453114,0.0
mp-625175,Cl1H3O5,-0.8135343179166665,0.0
mp-763328,Co4F11O1,-1.959027201640625,0.05153976898436685
mp-18749,Ni1O4S1,-1.7123684263541665,0.0
mp-23485,Ag2Hg1I4,-0.5123625465476189,0.0
mp-1001012,S4Sc2Zn1,-1.8220039308928568,0.009157033928572542
mp-1019806,K1Mg6O24P7,-2.9430696264407894,0.0
mp-559961,O4Se1Tl2,-0.921285559866074,0.0
mp-680674,Bi2Br9Cs3,-1.6658205006403943,0.0
mp-567956,Cl6Ga1N1Se2,-0.5323125111914067,0.08501779687527442
mp-6167,Ba2Nb1Nd1O6,-3.3751239490000002,0.0
mp-605821,Br1N2Nd3Se1,-1.836560522834821,0.04215361154763083
mp-3277,As1B1O4,-1.8355127075000002,0.0
mp-768317,Dy2O5Si1,-3.81830588390625,0.0
mp-17784,Ca1Ge1O5Ti1,-3.0499878490104164,0.0
mp-5618,As2Mg2O7,-2.273503009772725,0.0
mp-29416,Br9C2Pr5,-1.9236253117187498,0.010992246361604563
mp-557004,O2Si1,-3.2542875519444454,0.0
mp-2918,Cu1O2Y1,-2.7238328185416663,0.00030972062509482257
mp-772403,Nb1O4V1,-2.7338357504166653,0.029739999791763932
mp-11737,Li4O4Si1,-2.596234808518519,0.0
mp-23648,Al3Cl1Li4O12Si3,-3.120048428840579,0.0
mp-770847,Cd2La2O5,-2.6803363568055554,0.07948555972224922
mp-22958,Br1K1O3,-1.0588366599499992,0.0
mp-757205,O13Th5Y2,-4.212847592854166,0.3066101883749873
mp-755891,Cs1H4Li1O5S1,-1.693180322344947,0.03643790296895529
mp-5127,Cu1Li1O1,-1.4333706881944444,0.0
mp-542622,O7P4,-2.132309022234847,0.04382452812986673
mp-764063,Co1F1Li2O2,-2.2153152656944446,0.007054417500010383
mp-23609,B7Cl1O13Zn3,-2.5660377655381943,0.0007382973691880679
mp-772583,Ca3O9W2,-2.7701262704464287,0.08283371410709657
mp-730,P2Pt1,-0.7895928486507936,0.0
mp-777233,Ba1F5Y1,-4.283551293452382,0.0001742715711700831
mp-540138,Mo1O5P1,-2.3463973760204087,0.0
mp-762239,C1Mn1O3,-1.686570410047893,0.0
mp-756317,Al2Hg1O4,-2.543944635714285,0.0853370025000214
mp-753677,Bi1Li3S3,-1.1667025749107143,0.02562093928572016
mp-558411,O7Y2Zr2,-3.8122296461363665,0.07966861181819306
mp-557962,B1Li1S3Sr1,-1.5067363939236114,0.0011707643041765081
mp-776110,O3Si1Sn1,-2.587046378083334,0.02616058899998741
mp-554191,Na2O4U1,-3.029000504014778,0.0
mp-556553,O2Si1,-2.9601163466666662,0.0
mp-22893,I2Pb1,-0.8597180233333338,0.0
mp-644418,C1Ca1Cl1H2O3,-1.994044481562499,0.015885536363780872
mp-769001,B4Li6O16S1Sn2,-2.443694973247126,0.0584342582704836
mp-39542,F5K1O1Rb2Zr1,-3.3590175052249998,0.02106870974998145
mp-616577,B1C1Cl2N1Sr3,-1.519087086770833,0.0
mp-759657,Cu1F6Li3,-2.5537217409999995,0.0
mp-1013554,N1P1Sr3,-0.9527194013452401,0.0155594573458254
mp-768185,Ba4Li4O44Ti19,-3.3893925815023467,0.04578976526405668
mp-18303,Cu1Nd3Se7Sn1,-1.540103567994791,0.0
mp-676666,Ce1O3Rb2,-2.7050404545833344,0.0
mp-13339,Cu1Eu1F1Te1,-2.062896588541668,0.01110426032113665
mp-769590,Cr1Li2O8V3,-2.4252877301190474,0.006696120906555437
mp-5014,Ag1Cu1S1,-0.2730919349305558,0.02425582747840867
mp-556382,Cl1Eu1F1,-3.4833867925000006,0.0
mp-27377,K4O12Zr5,-3.2674722812857144,0.0
mp-18509,Be3F9K1Zn1,-3.313108192125,0.0
mp-27452,Al2Cl8Pd1,-1.3717365695454553,0.0
mp-773016,Lu2O13P4,-3.130063581951755,0.021286134210534532
mp-7440,Na1P1,-0.3805429961925286,0.0
mp-24402,Al1Ca1H1O5Si1,-3.0869679865277777,0.004954314376439426
mp-3006,P2Pd3S8,-0.393165472188645,0.0
mp-39626,La1Mn1O6Sr1W1,-2.843636257793102,0.05364318356373552
mp-35249,Hf2O7Sm2,-3.9085570054545467,0.0
mp-542840,In2O9Pb2Si2,-2.397890161055555,0.0
mp-760092,F1O1Sb1,-2.132788647916667,0.0
mp-18776,Ca1Co1O7P2,-2.722530762435064,0.0037659143305914192
mp-17166,B4K2O7,-2.7693438564358965,0.0
mp-578882,I3Pb2S2Sb1,-0.7826176239062499,0.026428022343749857
mp-27802,Ba1S3Sn2,-1.2591107420833287,0.0
mp-17676,F2S3Sn1Sr2,-2.467831711562499,0.0
mp-29030,F7Th1Tl3,-3.146364116818182,0.0
mp-703316,H7La1Mg2,-0.4540578611250002,0.0
mp-18721,Mn2O7P2,-2.4082952618107174,0.0
mp-767709,Li2Mn3O10Si3,-2.73106977280332,0.016069406534690245
mp-7589,F1Mg2N1,-2.0324645165625004,0.006459690104206217
mp-733729,H1In1O5P1Rb1,-2.297710682784391,0.0
mp-7104,Ca1Cs1F3,-3.7191043905,0.0
mp-763229,F1O1V1,-2.8007246487499997,0.0
mp-556031,O7P2Sn2,-2.3538581753896084,0.0
mp-27739,As2O9S2,-1.2901807535096157,0.0
mp-570538,N3Na1,-0.16537787406250004,0.0
mp-6245,F1K5Nb4O12,-2.68053943846591,0.0
mp-643573,H7Mg3Mn1,-0.34585185606191193,0.0
mp-760370,Bi6F8O5,-2.3384015432894736,0.023489110526261476
mp-1020616,Mg1O4P1Rb1,-2.9025267892346927,0.0
mp-625154,H8O6Pt1,-0.8876258723333327,0.04856876099999947
mp-775935,O2Zr1,-3.656928563888889,0.0
mp-676290,H1Rb1S1,-0.6681575070833331,0.0
mp-776692,F7Fe2Li1,-2.6871205619166667,0.008919222611102739
mp-28198,I4In1Rb1,-1.1436457385416645,0.0
mp-6674,La2Li1O6Sb1,-3.0568868593333334,0.003562840765120967
mp-505357,I1In1Se1,-0.8386476605729168,0.0
mp-769049,Ba1Cl5La1,-2.8274341396428575,0.06202267517857507
mp-541738,Cr2Cs3I9,-1.190150404913793,0.0
mp-554649,F6Na3Ni1,-2.6226755875000003,0.0
mp-1853,P14Sr3,-0.46631200333333356,0.0
mp-774306,Cr1Li1O5P1,-2.430341267552082,0.03419174964741645
mp-755856,Mg2O4Sn1,-2.5895801849999995,0.0
mp-761090,Bi1Na3O3,-1.6907305062007387,0.0
mp-558977,Er1La1S3,-2.448659237208334,0.0
mp-1020707,B4Ge1O9Rb2,-2.6529681113541663,0.0
mp-696485,F3H1Na2O5S1Te1,-2.1400600252442525,0.016114147623765753
mp-767604,Li12Nb14O42Zn1,-2.8758123567753637,0.010061465380434696
mp-4138,C1O3Rb2,-2.082622658333333,0.0
mp-772787,Gd2O13P4,-3.141658669320176,0.0006483132236904286
mp-23496,Ag2Cs1I3,-0.9236521160440608,0.0006842843750011577
mp-23207,Cl1O2,0.16933771958333446,0.0
mp-626295,Ba1H8O5,-1.3598208541666665,0.0
mp-770506,B1O9V5,-2.537225337777778,0.06060321150383838
mp-606691,K1O14P3U2,-3.089259765024999,0.0
mp-555700,O2Si1,-3.2594355314583328,0.0
mp-11605,Cu1K1S4Tb2,-1.9072407706979155,0.0
mp-3879,Ba2Cu1F6,-3.3932857361111113,0.0
mp-540760,Cl8Fe1P1,-1.2040188054642857,0.0
mp-27018,O4P1Sn1,-2.3543282182638876,0.05552493479164866
mp-3378,Hf1O3Sr1,-3.8137152275833337,0.0
mp-562764,B4Ba7S13,-1.6881880788151047,0.0
mp-541240,F5O2Sb3,-2.4046556944999997,0.0
mp-540482,Cr1Li1O7P2,-2.5070373623863627,0.0
mp-772199,Cl1O1Rb3,-1.5517394629999999,0.0
mp-31924,Li1Mn1O7P2,-2.56258677686819,0.0
mp-709350,As5H1O18Sr5,-2.4617498471839085,0.0
mp-12011,Ge1K1S4Tb1,-1.5401577400714288,0.0
mp-560608,Nd10O1S14,-2.4678745869,0.002347627100008367
mp-554543,O2Si1,-3.254962514166667,0.0
mp-23091,Ba2Bi1O6Sb1,-2.4552389655000004,0.0
mp-756272,Dy1La1O3,-3.7989788544999983,0.04026587100001748
mp-18352,Hf1O8Te3,-2.147089218541666,0.0
mp-555965,Li2O8Sn3Zn1,-2.1338295866666663,0.0
mp-22913,Br1Cu1,-0.559571324999999,0.0
mp-676077,Ce3Nd2O9,-3.6740553589285554,0.05357830660713958
mp-1019522,B10Ba2O17,-2.9915845091522986,0.0019804362500018403
mp-754628,N2W1,-0.37306886937500394,0.028671184603334954
mp-607806,Ho3N1Se3,-2.1640406951339304,0.0
mp-554873,Ag2B8O13,-2.5122775926268113,0.0
mp-17885,Ba2Ge2Te5,-0.9951991808333358,0.0
mp-546790,Cu1La1O1Te1,-2.176394974791667,0.006948040624202623
mp-605461,C5H6K3N1O13S1U1,-1.7181245058916668,0.07945883454710957
mp-23009,Br1Ca2N1,-1.6726480546874996,0.0
mp-24348,Bi1H1O12P4,-2.410749853323411,0.0
mp-721901,B4H8K2O11,-2.0618420694566657,0.0
mp-16884,Cu3Er2Rb1Se5,-1.3235291658380681,0.0
mp-560882,O2Se1,-0.7159069246875008,0.0
mp-675300,Ho2O7Zr2,-3.7769077237499995,0.09738017698866162
mp-22896,Cl3La1,-2.7032676281249994,0.0
mp-5769,Li3O4Sb1,-2.2143536906249994,0.0
mp-23651,Al3Ge3I1Na4O12,-2.562561807631185,0.0
mp-23522,Ba1Cl4Zn1,-2.266135787083336,0.0
mp-558111,F6Mn1Rb2,-2.9022861686590034,0.0
mp-10378,Cs3Sb1,-0.5072379500000004,0.0
mp-703539,Ag1B11Br6C1H6,-0.5102060890999996,0.0
mp-23451,Br9Cr2Cs3,-1.6811043913546777,0.0
mp-11670,Ba1N7Si4Y1,-1.440321172051282,0.0
mp-22605,Cd1Cr2Se4,-0.8327632977678567,0.0
mp-541878,Ge2K2S5,-1.0452247604583336,0.0
mp-12779,Cd1Te1,-0.5581268500000007,0.0
mp-760758,Bi3F1O4,-1.7809275984374997,0.025534654687498604
mp-772925,Li4O12Ti5,-3.179718176666666,0.0
mp-24461,Cl3H12N5O1Os1,-0.7000629556250004,0.020360459103946127
mp-570930,Bi2Pb2Se5,-0.5536790889236032,0.007066808888888134
mp-29576,Cd7P10,-0.07159240107843136,0.03474826397058825
mp-560625,Cl1O4Pb1Re1,-1.980822709285715,0.010213082142762175
mp-556001,Be1H1Na1O8Si3,-2.928133518146552,0.0
mp-382,As4Th3,-1.5578921971428485,0.0
mp-770894,Cr1F1Li2O4P1,-2.690336548194444,0.007134556155157333
mp-11653,B1O4P1,-2.7264811901388892,0.0
mp-5972,Cs1F5Pd2,-1.8542223571874992,0.0
mp-28299,O7Se2U1,-2.1663137918437494,0.0
mp-769481,Ga2O9Y4,-3.411273435694445,0.01953417483337745
mp-762988,F3Li1Mn1,-2.948391997752874,0.018346049749996853
mp-23408,Bi2S5Tl4,-0.48822319309658724,0.0
mp-23033,Cl1N1Sr2,-1.6405721353125013,0.0
mp-772886,Ba1Cl8La2,-2.8369588154545453,0.03596738272727054
mp-32689,Pr2Se3,-2.190777713854166,0.0
mp-542158,Fe1Ni1O5P1,-2.0748168596428567,0.0695520298406902
mp-764985,Co7Fe3Li8O20,-1.694806605438596,0.02935741289485312
mp-510459,Cu1Mn1O4V1,-1.928132231847291,0.033638920356988934
mp-754500,H3Li1O16P4Sn2,-2.275664509294871,0.04047603471073202
mp-774390,Mn3O8Sb1,-1.7712830665660906,0.05415061531249835
mp-36086,Li3Nb1O4,-2.650511830624999,0.0
mp-722245,C2H2K2N2O1S2,-0.7652246447272734,0.09079146897013017
mp-552200,Ba2Bi1O6Ta1,-2.94289641625,0.0
mp-568949,Br1Tl1,-1.0309185724999992,0.0
mp-667292,K2Mg1O12Si5,-3.1224364759250007,0.0
mp-773463,C1Co1K2O7P1,-2.0975487595119042,0.001084125620090563
mp-753459,F1Nb3O7,-3.0525964995454533,0.032026563749940735
mp-24170,Ca1H3O4P1,-2.1740999973148143,2.354118263486132e-05
mp-11115,Cu1Pd1Rb1Se5,-0.7226800792773438,0.0
mp-770558,Mn1O7P2,-2.3782012764716747,0.0
mp-505825,C2Cs2Pt1,-0.05823549617241426,0.0
mp-697676,H2O8Pb4S1,-1.6242917576666647,0.0012446865077424243
mp-1253,Ba1Se1,-2.283761781171875,0.0
mp-643066,H2O5S1Zn1,-1.6902094036111113,0.0
mp-2286,Li2Se1,-1.4177999896701383,0.0
mp-5273,K1Pr1Te2,-1.6261597203333338,0.0
mp-763519,Co3Li4Mn3Nb2O16,-2.158112120611658,0.04369735314666607
mp-775180,Co3Li2O8W1,-1.7097354754761906,0.08359728678563119
mp-26875,Cu1Li2O4P1,-2.2882023786011896,0.04814798843522272
mp-505558,Cu1Dy3Ge1Se7,-1.5322514642838527,0.0
mp-23126,As4I1K1O6,-1.6629689226875009,0.0
mp-676951,Dy3Nb1O7,-3.7038172119318173,0.06766807772725514
mp-558045,Li2Na1O4P1,-2.6817284081486035,0.0
mp-30032,I1O4Tl1,-0.8333468680555557,0.09617664895833637
mp-760188,F1Nb3O7,-3.072218970681817,0.032026563749940735
mp-758379,O28Ta5Y11,-3.6436088530166804,0.03315532199993951
mp-777787,As1Ho1O4,-2.585683871249993,0.0
mp-24405,Cd4Ge5H1Li1O15,-1.8981561460416665,0.0
mp-30529,B5H11,-0.049254262826703865,0.022297493920454547
mp-22887,Cl2Eu1,-2.776175921666668,0.0
mp-573202,Ag3K3S8Ta2,-1.1604995846249997,0.0
mp-625560,Br1H7O3,-1.1601446614772728,0.01610049949147132
mp-560670,Mg1O4Se1,-1.8747904149739583,0.0
mp-14169,F8Li4U1,-3.454074547179487,0.0003436105769349769
mp-13664,O7Sr2Ta2,-3.502421701325758,0.0
mp-30942,Ba6F34Mg11,-3.9452291138235296,0.002594951176515188
mp-628618,Ba5N1O18Os3,-2.1962015107407407,0.0
mp-752671,Ba2I6Sr1,-2.0623773103703713,0.013791629444444453
mp-696656,B1F3H4O2,-2.068885515416666,0.0
mp-557028,La1O11Sr2Ta3,-3.5577370202696073,0.01982532704043649
mp-753022,Ga5Na1O8,-2.1439565042056645,0.10803734428570218
mp-773906,H4K1Na1O11Si3Zr1,-2.655431082419129,0.0
mp-10614,Li1P1Sr1,-0.8964677693253963,0.0
mp-769922,O4Si1V2,-2.584740499999999,0.0
mp-14215,Ba4Ge1P4,-0.9182183084259256,0.0
mp-486,Ni1P2,-0.4013556986507929,0.0
mp-561124,F1Ho3O12Se4,-2.484287839593749,0.007480074874988673
mp-531792,F15Lu1Zr3,-4.121024084824563,0.0
mp-541911,Cl1Hf1N1,-2.1508616570833325,0.0
mp-28853,Au1La1O3,-2.125542820999999,0.0
mp-560358,O9P2Zr2,-3.294236457445053,0.0
mp-680689,O5Sr1Ti2,-3.160113459166668,0.21918258953144942
mp-542550,Cs2Se5Si2,-1.1216299681699,0.0
mp-675751,N2O11Zr7,-3.399258420125,0.04917396875015001
mp-29696,K4O3Sb2,-1.419085137944444,0.08493624236104047
mp-768959,C4Na4O16S1Sb2,-1.8841382093710077,0.05887296233027657
mp-15408,F4Ga1K1,-3.0524700311249995,0.0
mp-1020125,Mg1O3Si1,-3.2266771359999993,0.005957224250073523
mp-1019557,Ba1O13S4,-1.6291528347916666,0.0
mp-23558,Ag2Bi1O3,-0.682412742500001,0.0
mp-28294,F43Sb11,-2.6633504553240734,0.0
mp-762344,Na8Nb5O14,-2.4773804474457215,0.09428661115735687
mp-770538,Mn2O5P1,-2.3267208658677134,0.0
mp-761324,Li1Ni1O4Si1,-2.2358497033333333,0.05479205711290217
mp-18803,Na2O4W1,-2.2211302890147784,0.0
mp-756014,Ba4Hf1O6,-3.2116034213636357,0.06344375227273763
mp-15794,Li1Se2Y1,-1.9359729086718747,0.0
mp-558115,O2Si1,-3.0372217748888906,0.0
mp-560845,As4Cl2Cu2S3,-0.511948976761364,0.03001807877189093
mp-550514,La1N2O1Ta1,-2.218334452750001,0.0
mp-27403,F5Li1U1,-3.8219360863095244,0.0
mp-18710,Ag3Rb1Se5Sm2,-1.3165400415056803,0.0
mp-604,Nb2O5,-3.0144972274999993,0.0
mp-27801,Ag1I2Tl1,-0.6594670800000011,0.03191183967314565
mp-703461,F6Ge1H8N2O1,-1.5661558620138893,0.015590321795364225
mp-755210,Cu2O7Y4,-3.099658268301281,0.10353149576923379
mp-554508,K1O7P2Y1,-3.133317356143939,0.0
mp-763535,Li1O19P5W3,-2.4327408284374994,0.0968366048214726
mp-29151,Cl2Li5N1,-1.2699695146354157,0.005312405625002459
mp-28110,I6Pt1Rb2,-1.0668019205555537,0.0
mp-753546,Li8S6Ti1,-1.5132962307916662,0.0036665073333274735
mp-17803,Nb2S11Tl4,-0.6398856765257338,0.0
mp-13774,Na1Nd1O4Si1,-3.285259868887492,0.0
mp-754415,Nb1O7Tb3,-3.739839035681815,0.013362646022714713
mp-1019089,As1K1Mg1,-0.8451306704166667,0.0
mp-20716,O3Pb1Se1,-1.137435002812498,0.0
mp-771185,Ge2K2O5,-2.1405969626296297,0.0
mp-560673,F3Na1O8Pr2S2,-2.9992665859563585,0.0
mp-504593,C1Cl2O3Pb2,-1.7145465228124985,0.00012654781257137593
mp-559150,Cl1Na9O16P4Zr1,-2.6997328445902853,0.0
mp-40830,La1Na1O15Sr3Ti5,-3.4992216988218394,0.006948254379777836
mp-680387,O7Pr1Si2Y1,-3.180007824810606,0.0059316952272816725
mp-3727,Nb1Nd3O7,-3.631663851363635,0.0
mp-540927,Cl10P1U1,-2.135593236111111,0.0
mp-22220,La1Lu1O3,-3.9222810938333312,0.010218143374954991
mp-707182,As1H9O10U1,-1.7880744490476186,0.0
mp-559427,Ba1O14Sr4U3,-3.6346170315909094,0.0
mp-756160,Er3O7Ta1,-3.746596060212118,0.0
mp-18754,Cr1Dy1O4,-2.776153812777776,0.0
mp-569608,B1Cl7N2P2,-1.127037003829365,0.0017464586458763403
mp-7388,Au1F4Na1,-2.0076684544252874,0.0
mp-35264,Ag1Pr5Se8,-1.9626131297023781,0.018400098013387885
mp-558943,As1Li1O6U1,-2.706271492314814,0.003001708888848419
mp-3038,Al2Hg1Se4,-0.825231304821429,0.0
mp-755109,Er1O3Y1,-3.851524846666669,0.09715436087501388
mp-581143,F4O1Ru1,-1.7962183547916666,0.02584751697917061
mp-5392,Mg2O4Si1,-2.8796314885714276,0.0
mp-777814,Na6O7Sn2,-1.7686293151666612,0.07305442283336064
mp-765917,F5Li1O1V2,-3.0115668696296294,0.030927202221813763
mp-5478,O4Pd3Tl1,-0.7544982681250012,0.0
mp-571177,Br1Hg3I1Te2,-0.5520542922619074,0.009501161428571476
mp-19421,Fe1O4W1,-2.0235449525,0.0
mp-559115,Cl1F6P2Rh1,-2.383442152803571,0.0
mp-555838,F1O3P1Sn1,-2.500475212440477,0.0
mp-6948,K1Na1O1,-1.3134769687097687,0.014896494999997087
mp-616587,O3P1Rb1,-2.4719433618452387,0.0
mp-698032,H7Na3Ru1,-0.33839405465909134,0.0
mp-567431,Cl4Th1,-2.4199852909999975,0.0
mp-18843,Ca3Fe1O6Rh1,-2.4583074199999997,0.003792097045341982
mp-757590,Li1O4P1Sn1,-2.403591387746598,0.005276800415974289
mp-559587,Br1Cu1O3Sb2,-1.402867280535714,0.029475719464305987
mp-561380,Ag2O11Te4,-1.2453420650735287,0.01437725941176136
mp-775679,Cr1Li2Mn3O8,-2.1441140909256973,0.0036835117497755476
mp-756347,O7Pt2Y2,-2.268241570909091,0.0
mp-5338,O3Se1Zn1,-1.2107409420625004,0.0
mp-3118,Mg3O6Te1,-2.5496599054166666,0.0
mp-12362,Ag1Hg3O6Sb1,-1.0035339290151528,0.0044070728409097175
mp-553923,Ag1K2S4Sb1,-0.8847928637708327,0.013035684624995159
mp-776688,O3V2,-2.436583954999999,0.0
mp-4434,Al1O3Tb1,-3.6999128689999994,0.008993923650033509
mp-680679,Cu4Ho4K2S9,-1.6577089160065794,0.0
mp-6384,F1O2Rb1S1,-2.185575406499999,0.0
mp-695963,H10I1K2Na1O10,-1.3808288635438217,0.0
mp-773067,Er3O7Ta1,-3.8686326594318174,0.0
mp-777550,F4Fe1Li1,-2.7981983809722224,0.002276242685136154
mp-568570,Cs1I3Sn1,-1.2027146079310327,0.0
mp-29102,Cl4Hg3Te1,-0.6219295131250036,0.0
mp-720430,B3Ca1H7O9,-2.1270817898124994,0.005224167125002311
mp-23311,Br2Eu1,-2.4593783083333336,0.0
mp-754304,Ba1I5Y1,-1.802255574166667,0.06748257089285735
mp-15108,As1O5Rb1Sn1,-2.0249132328124997,0.0
mp-680144,Cd1I2,-0.8587371915789465,0.0
mp-29825,K2O5Si2,-2.8983044935555564,0.0
mp-530149,Al14Ca12O33,-3.4364061521822027,0.005958121864391981
mp-560163,Ca4F2O7Si2,-3.6308897214166667,0.0
mp-16848,P1S4Tl3,-0.6720601255803573,0.0
mp-776795,Ba1Br5Y1,-2.421567925,0.05608242696428662
mp-6922,O2Si1,-3.2553426425,0.0
mp-570902,Br10Pr6Ru1,-1.963416385294117,0.0
mp-554906,Bi1O6P1Zn2,-2.136888429583334,0.032406955250043265
mp-560544,Ba3In2O11Zn5,-2.1805647024206345,0.0
mp-27636,Cs2I6Sn1,-1.1990213149233693,0.0
mp-27264,F4Na1Ti1,-3.4409006223611116,0.0
mp-774848,H10O8Se1,-1.2266412995970395,0.0
mp-28772,Cl9S1Sb1,-0.9564026729545451,0.0
mp-12885,Al2Ba1O7Sb2,-2.7663705752083323,0.0
mp-530217,F15Pr1Zr3,-4.103245613421053,0.0046122392105243494
mp-22720,Nb3O10Rb1Sr2,-3.14568339390625,0.006423291752683191
mp-752686,O7Sm3Ta1,-3.7940717728409084,0.0
mp-721426,H7Na1O6P1,-1.6321602804923372,0.02627697357108237
mp-644332,F3K1Mn1,-3.0196870801862077,0.0
mp-7000,O2Si1,-3.257452020277777,0.0
mp-5226,K2O4Se1,-1.8093110304776785,0.0
mp-569754,Ba7Se13Sn3,-1.6838706001290757,0.005672548804360049
mp-752410,Ba2Ge1O4,-2.8202781260714285,0.0
mp-504601,Cs2O2Zn1,-1.4390571837500006,0.0
mp-19765,Hg1In2Te4,-0.40480253964285645,0.0
mp-560328,Ag15Cl3P4S16,-0.4815482346992475,0.0
mp-774557,Er2O6Te1,-3.0350284821296287,0.0
mp-5061,Li5O6Re1,-2.1518810663194436,0.0
mp-643356,Br2H2O1Sr1,-1.9147844799999998,0.005083455416250733
mp-555269,Ag3S3Sb1,-0.349230291339286,0.0
mp-28671,Br5Te2Zr1,-1.3201190804166654,0.0
mp-28256,Se9V2,-0.4585097978693191,0.0
mp-707929,B1C4H2Li1O9,-1.752831326544118,0.09189146482993724
mp-569766,I1Te1,-0.2967093895833339,0.0
mp-772765,C1K2O7P1Pr1,-2.745096666090277,0.037251165416503085
mp-17217,Ge1Te3Tl3,-0.4384579828571426,0.0
mp-17989,K3P1S4,-1.1737033928720226,0.0
mp-560216,Cs2Ge1O13P4,-2.592892409647271,0.0