Material ID,Compound,Energy,Hull Distance
mp-766885,O7P1Sb3,-1.6994190244372183,0.09077088810605942
mp-29155,B3O5Tl1,-2.3547584283333345,0.0
mp-767518,C1Na2O7P1Sc1,-2.742704625848898,0.0
mp-715457,O7V4,-2.3099036475,0.019349076136365797
mp-551826,Br4Nb1O1Tl1,-1.686403064583333,0.0
mp-17065,Ho2O5Si1,-3.698546771875,0.0
mp-23859,Ca1Cl1H1,-1.6996223904166665,0.0
mp-546321,Ba2Bi1Nd1O6,-2.76630554825,0.0
mp-4818,Rb2S7Sb4,-0.8125945739903846,0.0
mp-557362,Al1O4P1,-3.1076100659126973,0.0
mp-28433,Cl1O4Rb1,-1.09152475625,0.0
mp-767431,C1Na3O7P1Sr1,-2.575855352213906,0.00993933711523399
mp-766142,F1Fe5Li1O5,-1.6932023294444438,0.05455200791652034
mp-676284,Ag1Se2Y1,-1.3946174178385409,0.0
mp-4287,O4Sn1Sr2,-2.6498238385714297,0.0
mp-19420,Mg1O6Sr2W1,-2.989526183583333,0.0
mp-32642,Lu2S3,-2.285754425375001,0.0
mp-777778,F1Li2O2V1,-2.6521001665277777,0.006646839166824255
mp-770513,Li8Mn2O7,-2.002034454781102,0.10203646029412493
mp-2758,Se1Sr1,-2.35255396453125,0.0
mp-12532,Ag2K1P1S4,-0.7210677631532723,0.0
mp-675492,F17La5Sr1,-4.448057469021741,0.02267230514492516
mp-684024,Li2N2Si1,-1.1076655168333331,0.0
mp-775194,Fe3Li2O8W1,-1.9672440933333328,0.024623474999988865
mp-29070,Br9C2La5,-2.006015093750001,0.0
mp-29381,As1Na2Te2,-0.7281059047873569,0.01075744657610933
mp-1019513,Al1O4P1,-3.1220565218849186,0.0
mp-5251,C1Ca4N4,-1.010611598888889,0.0
mp-15790,Ho1Li1S2,-2.120153311822916,0.0
mp-600026,O2Si1,-2.9909124930555557,0.0
mp-1018098,Ba2Br1N1,-1.4121313446874986,0.0
mp-705553,Fe23O25,-1.479661158307291,0.03228564156249784
mp-505679,Hf1O7V2,-2.8833436249999993,0.0
mp-570875,Ga2Os1,-0.2054491316666637,0.07140113500000056
mp-757150,Bi1Li5S4,-1.2207256896666663,0.04447025599999943
mp-696853,Ca1H2O5Si1Zn1,-2.4617081575,0.0031546817555526017
mp-626720,Ba1H4O3,-1.75751522640625,0.0
mp-28168,Br14C1Th6,-1.9734751786904767,0.0
mp-765046,F7Li4O1V2,-3.0113291216666664,0.0562107937995085
mp-753821,Ga1O6Pr3,-3.4126279512499864,0.0
mp-10419,N3Na4Re1,-0.4367339785937503,0.0
mp-775331,Li1O2V1,-2.464853148333333,0.0
mp-19182,Ba2Ca1O6W1,-3.0276274424999996,0.0
mp-770836,Ba5O14Sc6,-3.495673856599999,0.060538791533346625
mp-28554,As1Ca2I1,-1.51575349125,0.0
mp-7756,Li1Sb1Sr1,-1.1236600513888888,0.0
mp-684677,Al2O3,-3.266154892750001,0.0
mp-626046,H7N1O6,-1.0899521027678567,0.006402178749999773
mp-17913,O4Se1Si1Tb2,-3.4069801703971363,0.0
mp-555843,Ag3As1S3,-0.29449513276785766,0.0
mp-556307,Na2O5Si2,-2.746985176388888,0.0
mp-541860,As2H4O9Ti1,-1.5797174599479167,0.002554863593894341
mp-4533,Na2O3Si1,-2.699880559058908,0.0
mp-5116,Ge2K6O7,-2.0255337112333325,0.0
mp-766094,F1Nb1O2,-3.101961506874999,0.0
mp-762304,Bi1F1O1,-2.2110482625000016,0.0
mp-754550,O7Ta1Tb3,-3.83415686875,0.0
mp-4535,Ga1O3Pr1,-3.0314300793333318,0.028778459857191054
mp-20254,Na2O7Te2,-1.6857522011533432,0.0
mp-4236,Ba1O2Zn1,-2.229918427500001,0.0
mp-560847,Nb2P1S10Tl1,-0.9539939969940475,0.0
mp-707068,F1H8K1O4,-1.5098639923571429,0.009140311785717614
mp-23215,Cl4Th1,-2.4095984409999973,0.0
mp-34486,Ag1Pr5S8,-2.0991733285714274,0.02123165264300551
mp-10560,Au1O6Sm3,-3.07829159975,0.0
mp-771830,I7Sr2Y1,-1.8365375629999998,0.06466026499999984
mp-772578,Li2Mn3O8Sn1,-2.0994938800328407,0.003917341651537549
mp-772820,Lu2O4Sr1,-3.8354449784523807,0.0
mp-27994,Br1Hg1O3,-0.4092711254999998,0.0
mp-505392,Ba3O13V4,-2.9076212092500016,0.0
mp-644285,Al1C1H2K1O5,-2.194838296975,0.0
mp-555164,Ca5Cl1O12P3,-3.3095890205442178,0.0
mp-676725,Lu3Nb1O7,-3.609154519204545,0.22035568261366026
mp-6040,B1Ba1O5P1,-3.1141779047470233,0.0
mp-622640,O7V3,-2.3393280882916665,0.0
mp-16594,K3O7Si2Tb1,-3.0719306940448723,0.0
mp-36592,Ag1Nd5Se8,-1.9485067891369054,0.01780428939732153
mp-558039,Ho1O6Sb1Sr2,-3.1159228799999985,0.0
mp-765567,H1Li4O15P5,-2.5857331274119044,0.0018149903001102529
mp-18991,Ba1Ni1O2,-1.233991392307692,0.08167262874999026
mp-30026,O11Sr3Te4,-1.9981626188888901,0.0
mp-772666,Cr2Li2O7,-1.8189283357196964,0.011075124886345251
mp-6015,Li1N1O1Si1,-2.1215578536458333,0.0
mp-23011,Cl1O3Rb1,-1.1450334247500003,0.03470451250008448
mp-614572,Ca3In1P3,-1.1394318334183668,0.0
mp-12181,Ba1S2Sn1,-1.5429662212499995,0.0
mp-4280,Cu1Ga1O2,-1.6756373162499996,0.0
mp-771253,O7Sm2Zr2,-3.720229437954549,0.036643032869329
mp-561126,I1Nd3S8Si2,-1.7625489594642865,0.0
mp-634977,Cl9Cs3Fe2,-1.6888162342118238,0.026505832499999573
mp-697744,Li1Mn1O7P2,-2.519668691061912,0.0
mp-20793,Fe1Ga2S4,-0.8073708992857139,0.09750852999999804
mp-773190,As1B1Na2O7V1,-2.2337280055771074,0.08303106707872399
mp-675324,Ba1C1O3,-2.60818226575,0.0
mp-19146,Cr1O4Pb1,-1.7215130124999938,0.0
mp-560585,Ir1O9P3,-1.9712914753021993,0.0
mp-30275,Ba1P8,-0.30970413023809346,0.008302391428571908
mp-29516,Bi7Br8Rh1,-0.85196355421875,0.041762994236111406
mp-505814,Ba2Cs1Nb3O10,-3.1323325265894386,0.0
mp-769596,Cr1Li3O8V3,-2.4400849783333323,0.043659294185243405
mp-754943,Bi1Er1O3,-2.825872509499999,0.030865469125096114
mp-28365,Au1Na3O2,-1.2313294870833336,0.0
mp-759924,Bi14O24S1,-1.7203773169871777,0.0
mp-27893,B5H9N1,-0.22686154868333402,0.07296340611666613
mp-18421,Ba2Ga2S5,-1.6675463002777775,0.0
mp-735535,H6N1Ni1O5P1,-1.460311476220239,0.008702347055097854
mp-34857,K1N1O2,-0.9783530481249993,0.0
mp-28108,Na4Sn1Te4,-0.8616289799999998,0.0
mp-705472,As1S1,0.02024937348958389,0.0
mp-768889,Ho1O3Y1,-3.913845779916666,0.08890067145609563
mp-776669,Co3Na7O8,-1.5068019391475092,0.046159964166666095
mp-558381,C1I2O1Pt1,-0.7127634307500003,0.08895189187499941
mp-755586,La1Na1O2,-3.0412574885129304,0.0
mp-558071,Rb1S1,-1.1571190458333307,0.0
mp-770806,O5Sm2Ti1,-3.6999064695833326,0.0
mp-756422,Cu1Li4O7Si2,-2.568326028898809,0.053719342142764095
mp-554267,O2Si1,-3.024175588333333,0.0
mp-29524,Bi1K3O3,-1.6805765223928577,0.0
mp-669508,Cl12N1P2Ta1,-1.4003241822886903,0.0
mp-625256,H5I1O6,-0.9928072716666669,0.01556840468749865
mp-11019,Cu1Ga1O2,-1.5261653812499993,0.0
mp-27197,As2Na4O7,-2.0162607486505304,0.0
mp-573755,Au1Cs1Te1,-0.8536619715325671,0.0
mp-5929,Na5P3Si1,-0.5401555184920631,0.0
mp-10547,Au1O1Rb1,-0.9515004037499987,0.0
mp-18952,Ca4Mn2O7,-2.8073972278547736,0.039456884999996604
mp-556786,Cd1Li1O4P1,-2.443536124523809,0.00043035432548320173
mp-752713,B1Ho1O3,-3.5608714180833325,0.0
mp-5309,Au1F4K1,-1.9286074972916651,0.0
mp-17524,As2Ge1,-0.062423882499999195,0.0
mp-771139,Cs4Hf1O4,-2.3395414801915706,0.0
mp-2488,Os1Si1,-0.3924824087499985,0.011948143333332717
mp-3622,F4Na2Pd1,-2.368902986157636,0.0
mp-16998,Ba2Nb6O21Te2,-2.8484589774462363,0.0014879243758275974
mp-569580,I7La4N2Na1,-1.8578929927770942,0.0
mp-557256,O9P3Pb1Rb1,-2.5588774237500007,0.0
mp-6647,Ag1Ba1Se3Y1,-1.7819086550607637,0.0
mp-3432,Ni1Sb1Sc1,-0.9635939116666634,0.0
mp-28439,F7K1Sc2,-4.032049715624998,0.008227452750185193
mp-1019888,B1K1N2Na2,-0.6185259581958812,0.0
mp-774105,Ca5Ge3O11,-2.911633728749999,0.015967980701766
mp-554023,B1Be2F1O3,-3.179533344702381,0.0
mp-558571,O13Sc2Te5,-2.125294543041666,0.0
mp-17853,Ga1O3Y1,-3.1232614143333337,0.027159736333483408
mp-557952,In1O7P2Rb1,-2.613603175037878,0.0
mp-769478,Co1Li4O18Ti4V4,-2.74876042561828,0.07624234104653371
mp-770681,Cr10Li1O15,-2.2316096183012806,0.09814910596155084
mp-10299,Ca4O6Pd1,-2.557614440454546,0.0
mp-542426,Cu1Hg1I1S1,-0.4375667051562502,0.02138581811631296
mp-542831,Gd2O5Si1,-3.5976457765625014,0.0
mp-752927,Ag1F2Li1,-2.15953052625,0.0
mp-768539,Al1O3Tl1,-2.1907037764166666,0.07613030012498215
mp-628631,Bi2Gd1I1O4,-2.316728911875,0.0
mp-560458,O7Rb2U2,-3.1008663856818157,0.0
mp-555156,Cr1F5Mn1,-2.9905276081403938,0.005564272857218404
mp-768695,Ho2O7Ti2,-3.686626486439394,0.0
mp-28107,Ge2Na4Te5,-0.7204242250000008,0.0
mp-530146,Al2Mg1O4,-3.360631053452381,0.0
mp-505222,Br3Cd1In1,-1.1518764413333344,0.008400606999998849
mp-549589,As1La1O1Zn1,-2.0635803296875004,0.0
mp-13001,Ba2Ho1O6Ta1,-3.586992533733332,0.0
mp-18718,Ca1Ni1O2,-1.2601062588461536,0.1802713286931632
mp-19175,Mn1O5Se2,-1.4912887448585668,0.0
mp-556458,Ba1C1Ca1O3,-2.6752019900833335,0.587393342604073
mp-686617,Cl1N17Nd10O9Si10,-2.2423345562234047,0.0016133062951184378
mp-504752,B1Fe3O5,-1.820953900277778,0.0
mp-619032,C1N2Pb1,-0.06032290875000079,0.0
mp-775006,Cr1Mn2O6,-1.8101500412068974,0.07362816055554372
mp-669474,F4N1O3Rb1Te1,-1.9525555806666666,0.0
mp-555514,F5O1Os1,-1.6519309764285737,0.0
mp-642824,F6S1,-1.853377008497024,0.0
mp-568284,I2Sr1,-1.9959403297222222,0.0
mp-754172,La3N3O4Ti2,-2.8085591022222225,0.05698631570108503
mp-5838,Ba2S4Si1,-1.8977009371428568,0.0
mp-19212,Mo1O4Rb2,-2.1971830971428568,0.0
mp-23517,I3Pb1Rb1,-1.266334579,0.0
mp-654301,Nb5O30P7,-2.8570284461309527,0.0
mp-721246,C2Co1N7Sr6,-0.8549162456250006,0.0
mp-694534,Fe1Li1O7P2,-2.3886747442045446,0.0
mp-755183,Dy1O2Tl1,-2.617417558906247,0.09749591624912979
mp-31940,Li1Mn1O4P1,-2.6067663929867457,0.0
mp-504576,F5O1Os1,-2.0015019316071436,0.0
mp-17088,Ba1K1P1S4,-1.4688628399132628,0.0
mp-19727,C1N2Pb1,0.0383002331250033,0.0
mp-708984,C1H5Na1O4,-1.3882281746865208,0.05330581825757525
mp-10781,Gd1Rb1Se2,-1.9979430098437518,0.0
mp-771196,Li8Mn12Ni4O31,-2.056977486765934,0.02298849069319999
mp-19992,La6O12U1,-3.7949335965789444,0.0
mp-29877,H9K2Re1,-0.3250971876736107,0.0
mp-673848,Ce2Dy2O7,-3.8987596996590907,0.06730497090909117
mp-25262,O2Ti1,-3.323672014444444,0.0
mp-29775,O6Pd1Sr4,-2.449303944545455,0.0
mp-1020724,Al4Na7O32P9,-2.6853524376304945,0.0
mp-774185,F11Mn6O1,-2.8311621121575663,0.014400235486140013
mp-555893,Cu1Pr3S7Si1,-1.8394572806249994,0.0
mp-10802,As1Rb1,-0.4230592568749998,0.0
mp-626550,H2O7Ti3,-2.9109243234374986,0.03647492083332556
mp-19270,Fe1O3Ti1,-2.6987024189166666,0.0
mp-570324,Br6Rb2Te1,-1.2613556391666678,0.0
mp-1056,O3Tb2,-3.984343459,0.0
mp-755831,Br1Cl1O1,-0.28983864749999966,0.13599121460396854
mp-755752,Be2O3Rb2,-2.292439548214285,0.0
mp-636461,Ga2Ge4O14Pb3,-2.0002365034782597,0.02233646143566249
mp-572596,In3S5Tl1,-0.8103268965509258,0.0
mp-762222,Cu1F4Li2,-2.5605152984523807,0.017085583571521568
mp-31909,Mn3O8Ta2,-2.74443733065075,0.022477846153871786
mp-29525,Bi1O3Rb3,-1.6288190130357145,0.0
mp-771816,Gd3Nb1O7,-3.6858136226136367,0.005362735454539802
mp-28569,Br4In1Na1,-1.4911905002586205,0.007368292083332524
mp-753671,N1O1P1,-1.3425175055753964,0.0
mp-762413,Cr1Li3O5Si1,-2.5967671618750003,0.08905564649743632
mp-764233,Co1Na8O6,-1.4589829486666663,0.0
mp-19931,Al1F7Mg1Na2,-3.581326849145768,0.0
mp-777918,Cr3O16Sb5,-1.9237974758333334,0.12464336416657258
mp-628647,As2Cl3Hg3Tl1,-0.6809325609259295,0.0
mp-27595,F8K2Re1,-2.6628180075,0.0
mp-555576,K1Na1O7S2,-2.0882415505572096,0.0
mp-561502,B5Ba8F1N10,-1.3701246304513894,0.0
mp-757836,Be1H2O4Se1,-1.7195508534179682,0.0
mp-568397,Cl7Cu1Mo3,-0.9900466112499994,0.0
mp-754645,Cl2Mg1O1,-1.4323969475,0.08781423789842568
mp-15201,O7Pr2Ti2,-3.5985049517424246,0.0
mp-757333,Al12O19Pb1,-3.304630565820312,0.006058732031262615
mp-557930,O2Si1,-3.0138286579166667,0.0
mp-27984,Cl1O1Pr1,-3.3578199097222217,0.0
mp-707746,Al2Ca1H6O13Si3,-2.6276637424000007,0.004603631450206649
mp-777963,H18Li3O9S4Sb1,-1.2272724814642857,0.01117505685701283
mp-570443,C1N2Tl2,-0.03120262483333723,0.0
mp-29081,O7P4S1,-2.04044200939236,0.02496452879948219
mp-561619,Cs1Lu1S2,-2.0490191165804568,0.0
mp-768931,Ga10O19Si2,-2.3897734390725804,0.0737336106451613
mp-3688,Er2O7Sn2,-2.8850015151515125,0.0
mp-774048,F7Fe4O1,-2.4194352251041664,0.0461661200264268
mp-28080,K2Sn1Te5,-0.6443500328125005,0.0
mp-554824,La3O7Ru1,-3.134880539090909,0.0
mp-35031,Cu1Pr5Se8,-1.910482484166652,0.07097736392857154
mp-560739,K3Li3O6Te1,-1.9501302233397422,0.0
mp-19039,Cd1Mo1O4,-1.9563506424999986,0.0
mp-772588,B3Li2O13V5,-2.6103188623007254,0.03523780392415154
mp-10408,C1K2N2,-0.6147464744999993,0.0
mp-1019516,Ba4Ga1N3O1,-1.0647916837500004,0.06383047458336419
mp-705034,Cr1O8Pb5,-1.5983371808035716,0.007197959140628184
mp-1019603,Ba1Cs2O7P2,-2.8888224401065608,0.0
mp-765411,Cr1Li3O5Si1,-2.6129049674999996,0.08905564649743632
mp-771691,Ca1I6Pb1,-1.0132551203125004,0.0803703756250016
mp-6408,Cu2Ge1S4Zn1,-0.6990636896875002,0.0
mp-760863,Na4O16Ti7,-3.1466842696126007,0.057358055925641235
mp-19426,Ca1O4W1,-2.8551765833333342,0.0
mp-560891,Cl8O3P2Sn1,-1.6817111748511908,0.0
mp-752674,Ba1F11Y3,-4.346510695499999,0.04201314316666753
mp-556962,Cu1Ge1Pr3S7,-1.7543803280729158,0.0
mp-510724,As3Cl1O9Pb5,-1.6314741479861112,0.0
mp-676867,Ca2F7Ho1,-4.127864045750001,0.20622651708333423
mp-559875,K3Li1Na2O6Te1,-1.8297541076545092,0.0
mp-30975,B1Na3O3,-2.2676080607245486,0.0
mp-560324,Cl1Hg2O12Rb3S3,-1.862205280565476,0.0
mp-24029,H10Na2O5S1,-1.2672753566810337,0.001843104305547843
mp-505113,F16Sn6Ti1,-2.8369585216666673,0.0
mp-755613,F3Li1O4Ti1,-2.178124412129629,0.17996699000044933
mp-569862,P2Rb4Se9,-0.7954306988343244,0.0
mp-675768,Dy14O41Ti10,-3.644065568641061,0.0876192286922971
mp-761322,B1Li1Ni1O3,-2.1997355235416673,0.017415203194989164
mp-13206,O1P1Pr1Zn1,-1.9802483780208329,0.0
mp-20763,Gd2Na2O10Ti3,-3.3364402223884384,0.07334178847100337
mp-707463,H9K1Na1Re1,-0.31504203750000076,0.0
mp-558717,As1Li1O6U1,-2.701702522592593,0.003001708888848419
mp-14796,K1Pt2Se3,-0.7573662459895871,0.0
mp-14292,Ba2Nd1O6Sb1,-3.0097094659999994,0.0
mp-762692,Fe11Li5O16,-1.7265703173958329,0.013160988281240682
mp-754004,H1O2Tm1,-2.9335706215625024,0.002909071093701421
mp-770371,Fe3Li4Mn2O16Ti3,-2.4342324921141207,0.054562683493776784
mp-777531,Cr3Nb2O16Ti3,-2.8476310704166665,0.10690176994921192
mp-771397,Li4Mn2Ni3O16Ti3,-2.0454836128284066,0.0736268063840588
mp-556425,F4Sb1,-2.6603351752500353,0.0
mp-27709,Bi6Br7,-0.8508986140384613,0.062016725160256685
mp-698068,F1H5N1O4P1Sn1,-1.6447104166025628,0.006326157476367145
mp-556163,O4Si1Zn2,-2.2524047833333327,0.0
mp-565597,Cu3I3P4S4,-0.4544508038690482,0.0
mp-505145,Ag3Bi1O3,-0.7955224294642856,0.01518951492857593
mp-540554,H5Na1O4S1,-1.4091936447844822,0.027545051221501315
mp-624691,Ag1O3V1,-1.8231499694999997,0.0
mp-553918,B5Cl1Eu2O9,-3.030459881740196,0.0
mp-554408,Ag1Cs1S7Sb4,-0.6563643224209775,5.515557692826488e-05
mp-754929,Ga3N1O3,-1.7656817501785704,0.043974436785708955
mp-12803,Ba1Er2F8,-4.430021996515151,0.0
mp-770865,Mn3O8Sn1,-1.793351658441092,0.044642348958324085
mp-770649,Li5Nb1O5,-2.540241967651515,0.008818674545457322
mp-18946,B1O3V1,-2.7240576353333323,0.0
mp-552537,Br1Cu1O2Sr2,-2.4237802791666674,0.0
mp-600015,O2Si1,-3.026604705555556,0.0
mp-554935,Pr8S15Sb2,-1.9983968689749987,0.0
mp-1020009,Ca2Li2O7Si2,-3.1932782650961533,0.009982247820350775
mp-29364,Li5O5Sb1,-2.1962504731060606,0.0
mp-558760,S3Sr1Zr1,-2.083627635000002,0.0
mp-775808,Mg1O1,-2.867162773333334,0.0
mp-2605,Ca1O1,-3.2301091375000013,0.0
mp-676552,Nd2O19Th8,-4.241880175905172,0.025347895948274475
mp-775155,F5Fe1Li4O1,-2.7819083173863626,0.08029790949499827
mp-13327,Lu1Nd1Se3,-2.1537363689062503,0.0
mp-768373,Ba2Br7Y1,-2.4984979449166667,0.0210035267500011
mp-239,Ba1S3,-1.2318135158593755,0.0
mp-557979,As2Mn1S5Tl2,-0.5604002787097713,0.029037106000001155
mp-2858,O2Zr1,-3.787402125,0.0
mp-22930,Cd1Cl6Rb4,-1.954543581818182,0.0
mp-755895,Ba3O7Zr2,-3.5170035635416674,0.0
mp-652364,Cl2N1P1,-0.9680002834107135,0.0
mp-17685,Ga1Ge1Li3O5,-2.3525119841250004,0.0
mp-6332,Li2O5Si1Ti1,-3.103482563194444,0.0
mp-648179,Cs3Mn3O16V4,-2.3162107114456227,0.0
mp-573204,Bi1Cs2F6K1,-2.940683493156035,0.0
mp-756168,Li2Nb4O11,-2.8916670989950966,0.058024602720584705
mp-768982,Li7Nb1S6,-1.3761122962202381,0.06623992492477093
mp-554817,Ba3Ca1O9Sb2,-2.7630584775833342,0.0
mp-556331,O11Pb1Pt4Sr4,-1.9609123891249993,0.0
mp-29473,I1Li1O4,-1.123356350972222,0.034620046458334386
mp-554842,Ag1Cs5O9Si3,-2.506127653615102,0.0
mp-559384,Ba1Na1Nd1O7Si2,-3.3518008247126425,0.0
mp-754885,Ca1I4Sr1,-1.9175163708333332,0.0
mp-704198,Li1Mo2O13P3,-2.406296638399123,0.044436523422722994
mp-560626,Ba2F18Ni7,-2.738192431296296,0.0
mp-776271,N2O1Zr2,-2.2559070610833327,0.0
mp-761676,Co3Li2O8Sb1,-1.73677976047619,0.0
mp-19240,Cr1Er1O4,-2.7852038458333346,0.0
mp-759877,Cu1F7Li4,-2.6670386992361146,0.03866861361113827
mp-556450,B2Cl1O4Pr1,-2.9156094923958324,0.0
mp-10344,Ba2Nb1O6Pr1,-3.3566362937500003,0.0
mp-769572,Al1Li1O4V1,-2.7533501197619037,0.03492819497596754
mp-16137,Ca1K4O12U3,-3.2710695619499974,0.0
mp-755368,N2O1Zr2,-2.280085440416666,0.0
mp-14190,Nd1O4P1,-3.41374090007935,0.0
mp-643036,Ba1Br1H1O1,-2.2032241115625,0.0
mp-30192,O4Pr4Se3,-3.1031204048816288,0.0
mp-556863,Al1Ba3F9,-4.099561392115385,0.005851553749940636
mp-674492,Na2O7U2,-3.266938292296238,0.0
mp-770365,Al1Li1O4V1,-2.772471524761905,0.03492819497596754
mp-705884,Fe1H1Li1O5P1,-2.235182387136242,0.0
mp-555003,F6W1,-2.8114165428571423,0.0
mp-40206,Ca2Fe1Nb3Nd2O14,-3.2277090067045453,0.027388220681924157
mp-18740,Cd2O7V2,-2.1459271177272736,0.0
mp-3928,Na5O10P3,-2.612739136434742,0.0
mp-15844,O5P1Ta1,-2.791967929329928,0.0
mp-556385,Cs3I4N1O3Zn1,-1.441626833128592,0.006214383071794079
mp-22325,O7P2Pb2,-2.173743854404762,0.0
mp-553982,In2K4O21Si8,-2.937079145592857,0.0
mp-769551,O25P1V9,-2.278796782916668,0.05155474750009189
mp-680756,Na4O9P2Ti1,-2.7811146883522673,0.0
mp-773176,As1C1Cr1Li2O7,-2.091709747847222,0.02377943827071327
mp-5960,Ca3O6U1,-3.579500280999999,0.0
mp-35033,Fe5O8Zn1,-1.6820856414285694,0.0021016875938484653
mp-759985,Bi3F5O2,-2.43621455475,0.005191272150029036
mp-542469,Gd2O7Si2,-3.619478453295453,0.0
mp-546625,Bi2Br1Ho1O4,-2.4441221143749994,0.0
mp-764336,F8Li4Mn3O1,-2.8452046844863506,0.07054168000008953
mp-722266,Ge1H16Na2O8Se3,-1.2001765457429958,0.01834061480770733
mp-540256,Ni1O4P1,-1.8852501807738093,0.10350920260423606
mp-557508,H2La1Na1O9S2,-2.2901077254252855,0.0
mp-30142,Be4N6O19,-1.3759183605603453,0.0
mp-16031,N4Sn3,0.05232796857142879,0.00015810006857159517
mp-763793,F8Li2Mn3,-2.971480503496906,0.021743724615368238
mp-7205,In1Li1O4Si1,-2.650499276785713,0.001668850714677055
mp-705314,Li3O29P8V3,-2.524267612684109,0.037293524856222955
mp-585516,Ca3O7Si2,-3.463090386354166,0.0023865537500409317
mp-23715,Ba1H2,-0.6063738008333335,0.0
mp-29084,Ba2Cl7Gd1,-2.8726113354999945,0.0
mp-627442,Ge7H18O23,-1.5559301917968753,0.052990890468727514
mp-761990,Li1Ni1O4P1,-2.2639726223809524,0.0
mp-769565,C1Na2O7P1V1,-2.4227656627001224,0.0
mp-3954,P1Pr1S4,-1.4035362565972225,0.0
mp-771389,Bi1Li2O8V3,-2.297901294404762,0.0703760419971969
mp-768745,Hf1O7P2,-3.1815071490416655,0.0
mp-763252,Li1O6Sb1W1,-2.0673139695370373,0.036754099444433704
mp-560300,Cu1Nd3S7Sn1,-1.7321101878645824,0.0
mp-17256,F12Hf3O1Rb2,-3.9643398040277753,0.0
mp-4627,As1Co1S1,-0.47360552593749833,0.0
mp-776068,Cr1Li1O4V1,-2.3983509226190485,0.00927948862927305
mp-669333,Ba5O21Si8,-3.369663382463236,0.0032642325291192265
mp-19428,K2O8Rb1Tb1V2,-2.725352042761905,0.0
mp-557798,F10K5Li2Nd1,-3.332549939189815,0.0
mp-557403,F6Fe2Li1,-2.755118714259259,0.0
mp-17516,Ca10O24P6Se1,-3.2841951622522867,0.0
mp-756354,O4Sc2Sr1,-3.712978748095238,0.0
mp-552738,Bi2I1O4Tm1,-2.3568726839583336,0.0
mp-643023,H4Mg2Ru1,-0.32130957571428603,0.0
mp-19075,K2O12Sr1V4,-2.6614354017105257,0.0
mp-558350,Br2O3Te1Zn2,-1.5309305473958328,0.0
mp-557696,F1Na5O16Si4Y4,-3.309160973730843,0.018850014999090565
mp-35799,Bi2Hf2O7,-2.730319490454545,0.0
mp-19342,O3W1,-2.181441499999999,0.0
mp-6501,Ba1Ho2O5Zn1,-3.2739296501388884,0.018800184351558218
mp-30214,F10I1Sb1,-2.28134230125,0.007242379625022721
mp-568514,B1Br2Cl3N1P1,-1.067497051413691,0.05739099389055624
mp-768507,Cu2O4S1,-1.1289868910845655,0.02044609964285777
mp-775130,Cr1Li2O3,-2.2048199063194454,0.006356615833335096
mp-17838,F10K1Tb3,-4.2959252780714285,0.0
mp-766340,Ba2Ca1I6,-1.9952492733333331,0.006904217777777709
mp-3666,Li1O3Ta1,-3.1279521289166667,0.0
mp-19970,Cu1Li3O3,-1.7819349651785714,0.0
mp-22184,Ba2Nb1O6Sm1,-3.3936651799999993,0.0
mp-30962,Ge9K4O20,-2.182466258242424,0.0
mp-643009,H4Mg1Sr1,-0.4976176119444447,0.0
mp-695887,Cu2H1K3O14P4,-2.321973979993055,0.0
mp-6182,Cs1Cu3Se5Tb2,-1.3274104422408897,0.0
mp-5518,Ag1Ga1Se2,-0.6906300109635413,0.0
mp-651847,Ga1Gd1Ge2O7,-2.376719650909091,0.0
mp-698063,H2Na2O7P2,-2.343011315847701,0.0
mp-20470,Gd2O3,-3.8442607912499995,0.0
mp-571490,C1Cl5Pr3,-2.1564937972222222,0.0
mp-762236,Al3Cr1O6,-3.1104282164999986,0.013255165249826461