Material ID,Compound,Energy,Hull Distance
mp-2068,F3Rh1,-1.7764090943749995,0.0
mp-570248,C2N3Na1,-0.33712274942528747,0.0
mp-3721,Hf1O3Sr1,-3.7224266999999998,0.0
mp-771194,Ge2Nb2O7,-2.4263392440909075,0.0927882962499909
mp-763244,F5Fe1H4O2Zn1,-2.0023024651923085,0.0
mp-559752,Cs1O4P1Zn1,-2.5046161798997177,0.0
mp-24510,Ba1H2I2O7,-1.4750193367708324,0.014494046874980645
mp-3789,O4Si1Zn2,-2.278158361904762,0.0
mp-643158,H8I1N4P1,-0.5408712678316324,0.0
mp-754239,Ga1O3Sc1,-2.9065326207916655,0.0046807785833102855
mp-764417,Fe14O15,-1.4627879707327573,0.1754752513793144
mp-644292,Eu2H6Mg1,-0.5322089211111111,0.037139694346550636
mp-530245,O5Ti1Tm2,-3.637858734895822,0.0
mp-7599,Be1O1,-3.091754320625,0.0
mp-704836,Ca1O5Si1Ti1,-2.4129601085416663,0.0
mp-705008,O32P9V4,-2.4641953369285705,0.054101884291895254
mp-560656,Ca1O3Te1,-2.4090583811833337,0.0
mp-558569,O2Si1,-2.972852051944446,0.0
mp-19340,Li1O2V1,-2.4916296833333327,0.0
mp-10097,As4Ga1Na3Sr3,-0.8131399283307214,0.0
mp-21835,Cs2In2Sb3,-0.4364788967302954,0.0
mp-28344,C1I14Zr6,-1.2819297489285713,0.0
mp-757777,Bi3Li1O7Si1,-2.1374211009027775,0.04531846385453401
mp-555641,Cl10Nb2O1Te4,-1.3952743755392154,0.007839548443787607
mp-555527,Br1S8Si2Sm3,-1.7051350473214302,0.0
mp-23446,Bi2Ge1O5,-1.8779174804687502,0.0054953767708263435
mp-696195,F1Se1Y1,-3.1964084888541677,0.010999846666695845
mp-753656,F1O1Sb1,-2.101790947500001,0.0
mp-619092,As2Fe2K2O9,-1.881623790816667,0.0
mp-4888,Nb1O5P1,-2.9082113624404764,0.0
mp-771093,Cr10Fe5Li3O24,-2.1710396614285705,0.0
mp-554716,C1F3Na1O2Sb1,-2.316516057047413,0.030886208925690273
mp-27411,P5Tl1,-0.044324999146825896,0.0
mp-28442,As5S8Tl1,-0.44228019255952333,0.005768639373150134
mp-560997,F4K1V1,-3.2296120169583333,0.0
mp-1315,Mg1S1,-1.6775532815624996,0.0
mp-771936,I9Sr3Y1,-1.8588924103205131,0.06423257730769248
mp-36821,Cd1Nd2Se4,-1.691644659910713,0.09651339464285691
mp-552588,Li1Nb1O3,-2.8639279891666662,0.0
mp-557406,B3Na1O5,-2.7822171502458484,0.0
mp-760046,H21Li1N7P1S3,-0.5322705111129146,0.0
mp-686697,Na3Nd3O30Sr4Ti10,-3.460387804893104,0.013948470344473662
mp-756818,Bi1Li1O4Si1,-2.4823189209523813,0.023689681258661364
mp-756597,Hf1Li2O3,-3.138804135694444,0.0
mp-19052,K3O4V1,-2.2545925852187487,0.0
mp-714931,O2V1,-1.9908120291666656,0.0
mp-774874,Cu1Li3O6Ti2,-2.6473105009722215,0.10635676707224444
mp-772840,Ge2O7Sm2,-3.0087349495454534,0.0
mp-26341,Li1O7P2Sb1,-2.4982124287499996,0.016046324166819916
mp-557112,Ga3I1Li4O12Si3,-2.525983545072464,0.0
mp-752910,Bi1Na3O4,-1.6966285205818967,0.0
mp-18361,As4K7Nb1,-0.6336709371875008,0.0
mp-675342,F11Nd1Pb4,-2.9674980508333455,0.03832140104150561
mp-766292,Dy1O12Y7,-3.9759243393333343,1.6577583303245546e-05
mp-556544,Al1Li1O4Si1,-3.1856454572619035,0.0
mp-756750,Dy2O5Ti1,-3.6872530064583167,0.0
mp-18910,Ba1O9V4,-2.6317246663392857,0.03480237776778746
mp-771981,Ba1Br8La2,-2.4862803663636357,0.040654378920961486
mp-684904,K2O1,-1.2086456532499998,0.0
mp-754759,O3Y2,-3.8606447079999997,0.0
mp-29543,O3P2Se1,-1.4710718512976204,0.06888899158856028
mp-1138,F1Li1,-3.165944597916666,0.0
mp-776323,Li2Ni1O12V5,-2.2985246843333327,0.07138665245840237
mp-756930,Ba1Ca1O2,-3.011345404374999,0.05426961374998429
mp-561260,Ca1Na2O7P2,-2.884253655378693,0.0
mp-775644,Cu1O8V3,-2.036354585833333,0.062074787083332104
mp-4891,Al1Ho1O3,-3.7101987344999996,0.015694753099905513
mp-559186,B1Ba1Bi1O4,-2.6157166834523795,0.0
mp-753623,Cu4Li2S3,-0.6307204323379634,0.03140927839338876
mp-559213,Cs1In3O5,-1.8073388502777794,0.0
mp-294,O3U1,-3.5267582096874976,0.0
mp-28087,F7I1Pb4,-2.436804961874999,0.028086370937473387
mp-13695,Cu1O2Sm1,-2.5261785424999985,0.0
mp-1020122,Mg1O7S2,-2.1492467562499997,0.0
mp-17291,Na3Si1Te3,-0.8545683820935963,0.0
mp-754110,Ag1O2Sm1,-2.4097038387500014,0.0
mp-559349,Cl1F17Sb2,-1.8990017953749994,0.0
mp-770988,C1Co1Na2O7P1,-2.101961428765565,0.0
mp-16577,Ca1F8Hf1Li2,-3.878199481111112,0.0
mp-752446,N1O3Rb1,-1.4011793797500005,0.0
mp-18873,Mn1Na1O4Rb2,-1.8134179830387955,0.0
mp-675977,Ag1Bi1S2,-0.4605057719791663,0.01481498261143488
mp-33746,C1O3Sr1,-2.6606864319999994,0.0
mp-19169,O4Pr1V1,-3.1669125316666666,0.0
mp-776740,Li2Mn1O6W1,-2.1432814644597684,0.05653980539992283
mp-770574,I8La2Mg1,-1.6596736904545453,0.06724558727272413
mp-17164,Ge1Na1Nb1O5,-2.5817812703502154,0.0
mp-6268,K1O5P1Ti1,-3.0462767217470246,0.0
mp-752503,Ce1O16Zr7,-3.760169677083335,0.024762563958302525
mp-754370,Ba3Ge1O5,-2.849301403333336,0.0
mp-4122,Ga1O4P1,-2.3368840585515867,0.0
mp-777898,F4Fe1Li1,-2.731601834097223,0.002276242685136154
mp-754250,Lu1Na1O2,-3.2093273560416655,0.0
mp-556212,K4O21Te2U5,-2.791610817343752,0.00013344124796166312
mp-767146,Li7Nb1O30Ti12,-3.2252732843666663,0.02677921872522063
mp-19360,Cr1Lu1O4,-2.7831919977777786,0.0
mp-1006118,P2S7,-0.5091631148379636,0.0
mp-561351,O2Si1,-3.255953407361111,0.0
mp-753712,I1O1Y1,-3.0719666483333348,0.0
mp-770559,Dy2O6W1,-3.3523467602777766,0.0
mp-570377,As4Sn3,-0.06433400857142958,0.025097108749999448
mp-772993,Li2Nb6O30Ti7,-3.1495276560555565,0.06539277355550692
mp-570256,Ag2Hg1I4,-0.539770893690477,0.0
mp-764771,Li6O12V5,-2.456816773913043,0.04751987559782401
mp-556641,Al1H2Li1Na2O9P2,-2.5613538289928037,0.0032970760908735113
mp-676206,Ag4I5Rb1,-0.6824440781666666,0.0347979946250014
mp-510065,Cs1Hg1Nd1Se3,-1.4672426686144053,0.0
mp-754672,O2Ti1,-3.470406101944443,0.0
mp-770900,As1C1Mn1Na1O7,-1.819001296528213,0.01258799876026599
mp-7469,Cu1Na1O1,-1.1277808525000002,0.0
mp-530714,Al1Ba14Sb11,-1.1110515764423075,0.0
mp-542063,C2H6O9Rb4,-1.7478661604761905,0.0
mp-774241,As1C1Na1O7V1,-2.005540985481974,0.051331319500184366
mp-3612,Nb1O4Sb1,-2.2396711458333343,0.0
mp-13925,Cs2F6Na1Y1,-3.5767087805689664,0.0
mp-723419,F12S19Sb2,-1.4198228958333323,0.0
mp-765615,Fe5Li6O12Sb1,-1.9318195268749996,0.02359792562500503
mp-572441,Au1Cs3O2,-1.2133080932998095,0.0
mp-3922,Ag1S2Sb1,-0.24963047140624894,0.0
mp-29506,Bi1Cs1O2,-1.6904833838577584,0.0
mp-752555,La2O4Sr1,-3.4662784833928595,0.048968965000003806
mp-28680,Br4Ga1K1,-1.625907097458333,0.0
mp-28478,Na1Te3,-0.47606470229166814,0.0
mp-558241,Ag1S4Ta1Tl2,-0.8720846029166669,0.0
mp-540997,Cl7Fe1Te1,-0.8050531263888874,0.0
mp-22323,In2O3,-1.8427860850000002,0.0
mp-676923,Bi6Cd2O11,-1.478398339802632,0.10598661539473565
mp-4519,K1O2Pr1,-2.830237346354167,0.0
mp-754933,O2Sm1Tl1,-2.622590498958333,0.09728754484397806
mp-28171,I1K3O1,-1.4688124775499993,0.0
mp-2865,Cu1F4K2,-2.5499333324999998,0.0
mp-770532,Mn2O5P1,-2.371749731000614,0.0
mp-568778,Br1Cu1Te1,-0.6401463130555545,0.0
mp-756103,Hg1O4Y2,-3.018893319761905,1.877749997904386e-05
mp-769480,Ga2O9Y4,-3.344118416666667,0.01953417483337745
mp-505564,Bi2Cl7Se4,-0.706236397788462,0.0
mp-556283,Na2O11Si4Ti1,-3.1227494382048198,0.011005071319481315
mp-24104,Al1H2Li1O7Si2,-2.768855990641025,0.00759473241621359
mp-771338,La2O13P4,-2.944058578258144,0.0034640127631653016
mp-767716,Li1O8Si3V1,-2.9676068719871798,0.06616221134590952
mp-22841,Ba2In2S5,-1.5399624397569451,0.0
mp-756452,Dy1O3Sm1,-3.8616274467500005,0.07504112487493302
mp-616378,Cs1I3Sn1,-1.2025951245862068,0.0
mp-569178,Ho1Se2Tl1,-1.6058079207812455,0.0
mp-767556,C1Na1O7P1Ti1,-2.637405802214136,0.023783281679119028
mp-22694,Li1O4P1Pb1,-2.3098551190561216,0.0
mp-6110,O6Sb1Sr2Y1,-3.0490263642499995,0.0
mp-776762,F5Li1V1,-3.079004014404762,0.001775361071415103
mp-561536,B1Mg1Na1O3,-2.7545328294947318,0.0056140083328439045
mp-540193,Li1Mn1O7P2,-2.5168113352772807,0.0
mp-625406,H1La1O1,-2.23561470375,0.0
mp-218,O3Sm2,-3.8627158434999997,0.0
mp-756587,O2Ti1,-3.3909452115277774,0.0
mp-3949,K7Li1Si8,-0.1717504786197912,0.0
mp-555234,Br1F3Rb1Sb1,-2.5265248841666668,0.0
mp-30103,Au1F5,-0.8670328231249987,0.0
mp-560956,Cr1Cs2F6K1,-3.1200233013862073,0.0
mp-23507,Br5In1Sn2,-0.8840091924999989,0.005160761221292054
mp-29542,Bi2K4O5,-1.7050504632500003,0.004270132974155158
mp-38695,Li1Se2Tb1,-1.9132416411718722,0.0
mp-14241,Se3Si1Tl2,-0.7155503406163201,0.0
mp-556004,Ba3Br2In2O5,-2.493398055902777,0.008218407024328004
mp-766919,Cr3Li8Mn1O12,-2.137914777274904,0.09710063437497762
mp-27365,Ba1Bi1Se3,-1.1956098934375006,0.0
mp-600063,O2Si1,-3.0283829904166675,0.0
mp-39260,Ca1F1Na2O4P1,-3.0056813231040866,0.0
mp-22766,Ca1In2O4,-2.395523194285713,0.0
mp-24646,Al1B1H3Na1O10P2,-2.4975372958269477,0.0035927967545781314
mp-558349,Ba5Cl1O12P3,-3.304153711190476,0.0
mp-626851,Fe4H14O13,-1.3338060110887096,0.07472673379032194
mp-764727,F1Li8Ni1O5,-2.0269000848611114,0.02961003133333288
mp-752405,Dy2O5Si1,-3.7954790492187502,0.0
mp-3667,O3P2S2,-1.6737499927380963,0.0
mp-754822,Li4O16Sn5Ti3,-2.4604448981547598,0.10111902422612065
mp-2530,Li2Te1,-1.1780869244444447,0.0
mp-559878,Ir1K2Na2O4,-1.5578470024731799,0.0
mp-17694,Al6Ca5O14,-3.4386859655999995,0.003228747314267366
mp-675941,I1Li7N2,-0.6976363564166654,0.0
mp-31107,As2O13Pb8,-1.6363341751630436,0.0
mp-19921,O1Pb1,-1.46797853,0.0
mp-11793,Cu1Se2Sm1,-1.4443759332812505,0.0
mp-556467,Nb2O1Rb4S10,-1.3763542673529405,0.00019527166813388167
mp-560186,Ba1Mg1O4Si1,-3.2977614659523815,0.016965443214703817
mp-761341,O4Ti1V1,-2.961558292638889,0.030006419583347228
mp-33325,Fe1Mg1O2,-2.0640099896428574,0.182585063750194
mp-766275,Bi10Ca2O17,-1.809186734051724,0.06485053543099085
mp-28584,Cu1I3Tl2,-0.7103673806944464,0.009425990416666844
mp-554018,Al8Be1Mg3O16,-3.3444852587500002,0.0
mp-541956,As1Cs1O5Ti1,-2.538576564436064,0.0
mp-29373,Al1K1Sb4,-0.3110389210416666,0.0
mp-579086,F1K1Nb2O6Sr1,-3.2035571631590902,0.0
mp-696651,F7H1K3Nb1O1,-3.0462328054038466,0.0
mp-752426,Li3S4Sb1,-1.0368735187499998,0.0
mp-772529,O9W2Y2,-2.870344864038461,0.025385022692306008
mp-559119,F5I1N2O4,-1.2847095231249999,0.04928007397219325
mp-697742,Mn1O7P2,-2.358614486584769,0.0
mp-763482,O5P1V1,-2.4987020445918335,0.0
mp-23887,H12Mg1O9S1,-1.4975890595652177,0.014871033951884272
mp-4002,F6Li2Zr1,-3.6905929070370362,0.0
mp-12929,As1O4Sm1,-2.821490080833333,0.0
mp-697128,Ca2H11K1O18P4,-2.209389629689815,0.004164938193164226
mp-28684,F35Sb7Se8,-2.2645867608250008,0.0
mp-555596,K6O1S6Si2,-1.5913937086999999,0.0
mp-556911,F2Fe1,-2.5921569499999997,0.0
mp-1554,K1Te1,-1.0100329010416687,0.0
mp-4092,O4Se1Sr1,-1.8601534723437514,0.0
mp-686718,Al11O48Si13Sr5Tl1,-3.2375675164529913,0.14115048695631371
mp-28501,Cl3K2Nb1,-1.876903066392858,0.6701475043571419
mp-14324,Be2K2Na4O5,-2.0083095994244022,0.0
mp-652494,Cs4Re6S13,-0.8970532205027182,0.0
mp-2469,Cd1S1,-0.7734142389062484,0.0
mp-776933,F5Fe2Li1,-2.6657733944791673,0.03743517624998427
mp-766208,Ba3Li1Nb3O21Ti5,-3.340618309772728,0.011050910757451116
mp-673073,Li1O7P2Sb1,-2.473390831374458,0.016046324166819916
mp-16116,Cu1Rb1Se4Sm2,-1.7374980571093745,0.0
mp-567780,Br5Rb1Sn2,-1.2228203457812512,0.0
mp-18258,Ba1O4Tb2,-3.5893176692857156,0.0
mp-5915,N1O3Tl1,-0.5879803637500004,0.0
mp-23583,Bi1Cl12Cs4Sb1,-1.812149985756706,0.0
mp-753541,Cu1F4Li1,-2.1688444497222217,0.0
mp-555211,O2Si1,-3.257206244374999,0.0
mp-18246,K6Mn1Te4,-1.1864509465438857,0.0
mp-21562,In1Se6Sm3,-1.8227006819062503,0.00553443870834105
mp-19245,Ba1La1Mn2O6,-2.7315388253362074,0.053757819083004324
mp-767632,O4P1V1,-2.6972353188888882,0.0
mp-755391,Ba1Na2O2,-1.9315359101206895,0.061693797999995324
mp-759172,O8Sb3Ta1,-2.2724152204166668,0.0014524314584353586
mp-16969,Lu2O5Si1,-3.864375838906251,0.0
mp-571540,Cl2Zn1,-1.554141251388889,0.0
mp-735530,Ba2Fe3H1O22P6,-2.6260406439443273,0.0
mp-5694,Ho1Na1S2,-2.13460306265625,0.0
mp-554083,As2Ba1O7Zn1,-2.145659974999999,0.0
mp-756142,La2O13Th5,-4.2139120026875005,0.3138055596249473
mp-29537,Cl2O1,0.2655162466666674,0.0
mp-29577,Br1Cs1O4,-0.6643223064583322,0.024229320625006896
mp-19435,Co1Mo1O4,-1.5943313883333328,0.0
mp-721217,H2K2O7P2,-2.346309422406593,0.031271304614969554
mp-571582,Br3Hg3Sb2Tl1,-0.6478230714814843,0.0
mp-18344,S11Ta2Tl4,-0.6654192912120072,0.0
mp-29301,Ba4Ga2S7,-1.871092024038461,0.003403869615176529
mp-777567,F4Fe1Li1,-2.7278370230555553,0.002276242685136154
mp-558135,Cl6O1S8Ti4,-1.7384937995175427,0.0
mp-770173,Mg2Mn3O8,-2.190608292984085,0.0
mp-23046,F1I1Sr1,-3.166749240833333,0.0
mp-776093,As1Cs1O3,-1.8879239504310348,0.0
mp-555507,Al2Cl1F25Sr10,-4.104935561907895,0.007817623680373822
mp-19092,Co1O4W1,-1.9233360341666657,0.0
mp-768665,B2Bi1Li1O5,-2.4011948733796284,0.044938826246124504
mp-706631,B3H1Na2O6,-2.5338994864044544,0.0
mp-1018656,Br1Ca2H3,-1.1024031277083342,0.018186873750000093
mp-768368,I2K4O1,-1.5602223657142855,0.0
mp-23956,H4K2Mg1,-0.3358669620714281,0.0
mp-23963,H1I1O3,-0.9047186757500001,0.016585399499999376
mp-694952,Fe11O24Ti5,-2.3023519981666665,0.027510484365424758
mp-698576,Fe5O12Ti3,-2.43455225175,0.025668401038403843
mp-646102,Al3Bi5Cl12,-1.4848501402499985,0.006289912204544912
mp-770707,Al1Fe1Li2O4,-2.486667964583333,0.016841030938335333
mp-772434,Cr1Li4O4,-2.203176934074074,0.01448549833332772
mp-771303,B2Li1Mn1O5,-2.4953428727330778,0.043033760240722946
mp-754892,Cl1O1Rb3,-1.5530111642499995,0.0
mp-7748,Al1Na1O2,-2.8695767460129304,0.0
mp-601817,C2Cu4H3N5,-0.02500370669642901,0.16024136667809571
mp-30094,C1H2N2,-0.17935778325000057,0.13961401016666639
mp-669421,Al1O4Si1Tl1,-2.5218141861904755,0.0
mp-24761,B1Ga1H1O9P2Rb1,-2.549641504646876,0.0
mp-555850,F1Lu1S1,-3.290308943993054,0.0
mp-19048,Ba1O4W1,-2.726259999166667,0.0
mp-559243,Cl2Nd2O7Ta2,-3.438406035865385,0.0
mp-685300,P8S29Ti4,-0.8588357959908532,0.00013296791153900967
mp-694942,Ba1Co5F18Li1Na5,-2.741459424369732,0.014741082332753308
mp-14638,F6Ga1Li1Rb2,-3.0913798765833334,0.0
mp-769261,C4Na6O16S1Sn2,-1.9897245454288046,0.023746564467773443
mp-4035,O4Rb1Re1,-2.355912790416666,0.0
mp-772082,Ca1I5La1,-1.8692727464285714,0.02414156678571417
mp-707874,Ba7Cu3H17,-0.48397743921296305,0.0
mp-690516,Co2O5Sr2,-2.0837952363888883,0.0
mp-768536,Cs3La1O3,-2.0755519910714355,0.02408827749996207
mp-760513,La2O6U1,-3.742513108333333,0.0
mp-23850,H2N1Na1,-0.4309021803125006,0.0
mp-560589,Cl1F6N2Nb1S1Se2,-1.7659483167067302,0.06226477235187307
mp-18774,Fe1Na1O7P2,-2.504539688588034,0.0
mp-768074,Li1O6Ta1W1,-2.6621138087037033,0.04773140138853746
mp-777664,F4Fe1Li2,-2.854429895238095,0.013517847857180243
mp-769050,Li2Nb1S3,-1.3982920198611097,0.05981457861108493
mp-545359,Cu1K1Na2O2,-1.3335260725014362,0.0
mp-674506,F17Nd1Pb7,-2.8143460011333445,0.026072739466641792
mp-540619,K3Sn1Te3,-1.0114667198571428,0.0
mp-5977,Nd2O7Zr2,-3.7965128090909093,0.009150153806851852
mp-554885,Ba3N4O9Si6,-2.7440744217045463,0.0
mp-675680,O3Sb1Sr1,-2.2420696982407415,0.13149029939994392
mp-28947,Cl5Na1Sn2,-1.5884156886314655,0.0
mp-558489,Ca6Hf19O44,-3.9158245271014485,0.01835903568840412
mp-19299,B1Cr1O3,-2.620881953083333,0.0
mp-29251,Br2O11Te6,-1.4058000679605256,0.008919019177636232
mp-720825,H4Na1O5P1,-1.8813060866940963,0.007845856363952014
mp-38099,Cl2O1Rb4,-1.735083963392857,0.04640700976160821
mp-758855,B1Li1O3Zn1,-2.396465470833333,0.008390397083413603
mp-7505,K2P2Pd1,-0.6253217876904756,0.0
mp-277,N4Zr3,-1.680270481428573,0.0
mp-775823,N2O1Zr2,-2.3338245027500006,0.0
mp-776016,K2O1,-1.1482878566666663,0.0
mp-34337,Cl1H4N1,-0.7627232008333333,0.0
mp-1595,Nb2O5,-2.732436429285715,0.0
mp-684815,Ba4La2Nb2O18Ti3,-3.4622966708620693,0.04192399040195287
mp-768954,Ba2Cl7Y1,-2.7189181415000006,0.009044495750002568
mp-4578,Ge1S4Sr2,-1.6076003101785707,0.0
mp-560450,F11N1S1Sb2,-2.2076735991666663,0.06712839361675502
mp-18388,Ga7Te10,-0.577283207598039,0.0
mp-567290,La1N1,-1.5012699525000004,0.0
mp-11660,Hf3N4,-1.8010663592857148,0.0
mp-24712,F1H5N1O3P1,-1.5994061895075746,0.0
mp-559521,Bi2Cl1In1S4,-0.8559910965624993,0.0007625863585734027
mp-29662,Bi1Se2Tl1,-0.5300562226562491,0.0
mp-17114,Nd2O7Sn2,-2.820093457727273,0.0
mp-690733,H2O4S1,-1.5353367747321423,0.0
mp-697305,Al7K2Na5O24Si5,-2.9977209673580587,0.1191589258907802
mp-557233,Al1F4Tl1,-3.2824191830555556,0.0
mp-32616,Ga2S3,-0.9630933448750006,0.0
mp-29458,Cl9Mo2Rb3,-1.6190151850892858,0.0
mp-27310,F10Na4Sn3,-2.6888145935294108,0.0
mp-565711,F3O2P2,-2.509622678333333,0.0082871808018119
mp-560068,N1Na3O4,-1.3749061534859912,0.011827198437503794
mp-695396,Na3Nb3O12Sr1Ti1,-2.989531990732759,0.0296714624997108
mp-773242,Co1Li3O8V3,-2.266787084666666,0.09988617266674993
mp-680400,K3S11Ta2,-1.196120076929688,0.0
mp-752395,Ba2Na2O3,-2.1415589961083734,0.08105625678566016
mp-29289,Ba1Pt2S3,-1.2280646748611055,0.0
mp-26725,Li1O4P1Sn1,-2.432844326139455,0.005276800415974289
mp-756654,F1O1Sb1,-2.116473008333333,0.0
mp-622602,As1Mo1Na1O6,-1.914508530431034,0.0
mp-638424,O9S2Sb2,-1.8041901269230782,0.0
mp-770504,Cr11Li24Mn1O36,-2.2303592885823766,0.01827548715283653
mp-13972,O2Se1Sm2,-3.3851292918125013,0.0
mp-676851,K1N1O3,-1.0221991935000005,0.0
mp-555251,O2Si1,-3.028305750833333,0.0
mp-755393,I5La1Sr1,-1.876272878095238,0.027997881071426534
mp-555131,C1Cs1O2,-1.9004327519827582,0.0
mp-767539,Li6S2Sb1,-1.1151393422222222,0.05502653970780772
mp-12448,Li1O6Os1Sm2,-2.840352888333333,0.0
mp-770632,Cr1Li3O4,-2.18079599125,0.0
mp-27786,As2Cl13Sb1,-1.1092099231250003,0.0
mp-756755,Li3Nb3O12Te1,-2.581542060087719,0.03073352006576987
mp-5788,Na1O3U1,-3.206199318999998,0.0
mp-30294,S4Sn1Sr2,-1.6002927173214272,0.0
mp-6566,As1Na1O4Zn1,-1.9259745338875203,0.0
mp-23751,Cs1H3Mg1,-0.3199252866810359,0.0
mp-21459,Ag1In1S2,-0.5580708601562492,0.0
mp-555268,Ir1K2O7Sm2,-2.4816576109999993,0.0
mp-758453,H4N2Na2O5P2,-1.7038339617346736,0.03538984369611834
mp-23553,Bi2Ge1O5,-1.8524840907812496,0.0054953767708263435
mp-27798,B4H5,-0.08526796329861162,0.012847587031249516
mp-716723,O17V9,-2.4712470968749995,0.014588824903857866
mp-16742,Ag1Ba1F1Te1,-2.1839696802083326,0.0
mp-570645,Ca2N8Si5,-1.4026092506666676,0.0
mp-7438,K1Sb1Zn1,-0.5108005562499992,0.0
mp-541339,Cl1H9O5Sr1,-1.5595111665885426,0.017061929373919593
mp-756344,Li4O4Zr1,-2.6925290425925925,0.03679628277776222
mp-559065,I3Na1O8,-1.0314560376293105,0.0
mp-697683,H8N3O2P1,-0.9390821358673459,0.0
mp-29499,Cl3Re3Te8,-0.6674746393452387,0.0
mp-775938,O2Ti1,-3.4631995119444445,0.0
mp-555967,Cl5P4S4Ta1,-1.0312529386309524,0.007845849944348211
mp-3523,Gd2O4Sr1,-3.651304092380952,0.012837102142868215
mp-754857,Ge2Nb2O7,-2.4066817178409083,0.0927882962499909
mp-757100,Co1Li1S2,-0.8427830093229147,0.010392184062500531
mp-10417,K1O2Sb1,-1.691795182187498,0.0
mp-676449,Al3N1Na4O13Si3,-2.795905388956538,0.10509895173789612
mp-13954,F6Ge1Rb2,-2.9704779086111106,0.0
mp-707334,H2K7N1O22P6,-2.3929049252922936,0.019484650262994608
mp-557359,Al2Cs2O7Sb2,-2.512464353985411,0.0
mp-361,Cu2O1,-0.6449295362500003,0.0
mp-18784,Dy1O4V1,-3.2994499325000013,0.0
mp-38284,Ce2Nd2O7,-3.7899920669318177,0.048389709318155644
mp-27017,Li1O4P1Sn1,-2.4657258695238093,0.005276800415974289
mp-773910,Er2Ge1O5,-3.36573851,0.0
mp-28232,Mg1O5Ti2,-3.278083856666666,0.0
mp-17569,F7Pt1Sm1,-2.8046206705555536,0.0
mp-22880,Br2Fe1,-0.8526129833333341,0.0
mp-556020,Al1F6Li3,-3.4870714310000004,0.0
mp-733604,Ba2H10Mg3,-0.46964841266666657,0.0
mp-707337,H3K3Pd1,-0.19668798858928735,0.0
mp-556995,Nd2O3,-3.661448576666667,0.0
mp-767710,Li2O7P2V1,-2.595727025704365,0.024325714221621553
mp-4906,O7S1Te2,-1.6431098407708327,0.0
mp-757457,La1Nb3O9,-3.24559443375,0.051738080865379635
mp-540862,Al2Ba2Ca1F14Mg1,-4.04343036975,0.0
mp-560058,Ga3Li9O29P8,-2.671405836370262,0.009535490628973303
mp-17850,K3Na1O6Th2,-2.9515959190107743,0.0
mp-13055,Ba2La1O6Ta1,-3.508339945750001,0.0
mp-560478,Ba1O10Si3Y2,-3.594495628177084,0.0
mp-13898,Cs2F6In1Na1,-2.999955861235633,0.0
mp-754730,Ca1I4Sr1,-1.868767218194445,0.0
mp-16695,K2O7P2Zn1,-2.599798356368055,0.0
mp-28630,B1N2Na3,-0.6793939791666664,0.0
mp-770932,Li1O3Sb1,-2.118928391916667,0.0
mp-29342,Ca3Cl3P1,-2.2533461536394555,0.0
mp-27987,Br1F5,-0.9692183462499996,0.0
mp-558270,Al1Cl4N5S5,-0.4152112474166671,0.10787339929728408
mp-558572,F6Na2U1,-3.6301186749999994,0.0
mp-4626,C1Ca1O3,-2.6644172152500003,0.0
mp-758179,Cu2Li1O4P1,-1.8433402633333333,0.09721506593559304
mp-540636,F4O1W1,-2.6743947406250004,0.0
mp-755165,O3Sc1Y1,-3.941893670583333,0.019660497916627405
mp-756131,Ca1I6Sr2,-1.946569561481481,0.02224016625499677
mp-541193,Cl2Hg7O3,-0.4063486439583386,0.0