Material ID,Compound,Energy,Hull Distance
mp-18008,Ba2Hg1S3,-1.7006228328124997,0.012781441666625723
mp-561336,Li2Mg2O11Si4,-3.1171854967324553,0.01983335460521941
mp-6873,Al1Ca1F1O4Si1,-3.5444868434374994,0.028853791170796228
mp-735484,Cr1H17N4O9P2,-1.3001497960010822,0.03064875894276473
mp-760014,F4Li1Sb1,-2.779232197638889,0.0011048856250130967
mp-570531,Cl12N1Nb1P2,-1.3546938849553571,0.0
mp-31043,F2H5N1,-1.154461715,0.0
mp-23844,F1H1Hg1O1,-1.3354128465625008,0.0
mp-14715,Au5F21Pr2,-2.233797342440476,0.0
mp-675124,In4S8Sn1,-0.667022063461537,0.020351513653847582
mp-554459,Br1N3Pr6S4,-2.0712478869642856,0.0
mp-769391,Ba4O6Zr1,-3.1565292206818185,0.05415563181815615
mp-769290,Cu1Li1O4P1,-2.140974264166666,0.042708045358219086
mp-1019889,B1K1O6Si2,-3.0493009723916655,0.0
mp-764645,F7Li3Mn1,-2.859560195948276,0.05573459030302918
mp-556413,Cd2Na4O10Si3,-2.5398914983529948,0.0
mp-754109,As1O4Pr1,-2.58380099652778,0.0
mp-755374,O6Sm2Te1,-2.874766089629629,0.0
mp-542058,B3Se10Tl3,-0.2878358129175389,0.0019126504444444137
mp-770065,Gd2O5Ti1,-3.630681267083336,0.0
mp-1019792,K2O7Si2Zr1,-3.1814549619374994,0.0
mp-28034,Cu2P7,-0.13935082398148146,0.0
mp-720197,Ge1H4K4N2O3,-1.1815883486250007,0.0
mp-26129,Bi1Li1O7P2,-2.5414890748863637,0.008196213030155648
mp-11792,Cu1Pr1Se2,-1.4754218986718746,0.0
mp-722774,As2Ba3H14O7S8,-1.307871844558823,0.013140272530231305
mp-570173,Cl6K2Sn1,-1.857856657888889,0.0
mp-10559,Au1Gd3O6,-2.932937544999999,0.0
mp-15073,Ba1C2F1O6Sm1,-2.907237511363637,0.0
mp-28744,Br4Os1Y4,-1.535753878333332,0.0
mp-775863,N2O1Zr2,-2.2660170525000014,0.0
mp-768382,Al4La2O9,-3.5428289551666676,0.07817494566667307
mp-643074,Cs2H2O7P2,-2.3733110679829794,0.005363763653761566
mp-15385,Na2O9P2U1,-2.9569303198942944,0.0
mp-505234,Ba1O7P2Pb1,-2.829121407992424,0.0
mp-558629,Ba2O7Si2Zn1,-3.146939266354167,0.0
mp-754208,Er1In1O3,-2.8459962920416673,0.015753188708202616
mp-642807,Br1H2Tb1,-1.2866345043749998,0.0
mp-765959,C2H3N3Na1O4P1,-1.293029713912297,0.030837903511944882
mp-568591,C1I5La3,-1.5807189369444405,0.0
mp-559545,O2Se1,-0.7145064867708335,0.0
mp-33297,Mg2O4Ti1,-3.2502053997619043,0.0
mp-755459,O1Rb2,-1.1155062079166662,0.0
mp-37216,Cd1F6Pb1,-2.1992722493749994,0.0
mp-560923,Ag1Cl1O4Pb4,-1.3370956106666683,0.012095157114584865
mp-777684,F5Fe2Li1,-2.6576236272916667,0.03743517624998427
mp-10223,Na2Pd1S2,-1.03510131787069,0.0
mp-676305,Mg4O9Sb2,-2.4042689233333343,0.0
mp-12159,F1Na2O3P1,-2.700941218557354,0.01732715601228258
mp-699136,Al1C1H2Na1O5,-2.1780128283879323,0.0
mp-767625,F4Li1V1,-3.1655065472222232,0.0
mp-562434,Cs3O14Ta5,-3.1727331346878263,0.0
mp-7434,Cu1Na1Te1,-0.617739817739464,0.010034804162819396
mp-15668,Na1Se1,-1.000117890781251,0.0
mp-29449,Cl9Cu5Rb4,-1.4188719961111107,0.0
mp-556264,Cr1F6K1Rb2,-3.1061372757250005,0.0
mp-1018093,Ca1Ga1Ge1H1,-0.46962978343750006,0.0
mp-556237,F5K1Li1Y1,-3.7951255953750005,0.00039630645797883446
mp-775822,N2O1Zr2,-2.3354782667499974,0.0
mp-14652,Cs2P3,-0.589592211785714,0.0
mp-1019606,B2Cs2Li2O15P4,-2.754547059415271,0.0
mp-1020024,B4Li6O9,-2.6757722689692978,0.0
mp-6955,Ge1K1N1O1,-1.2722811761875006,0.0
mp-402,Cd1P2,-0.1804781169841263,0.0
mp-18433,Nd1O4Ta1,-3.6636034491666662,0.0
mp-6228,Ge1Na2O5Ti1,-2.610961168732439,0.0
mp-684911,Sm2Te3,-1.6649291524999996,0.0
mp-32669,Ag2S1,-0.21761352048611116,0.0
mp-27968,Ge2Li6O7,-2.302349900166666,0.003411427999789396
mp-15645,Ag8S6Sn1,-0.20457866779166617,0.0
mp-27294,As1Br3Ca3,-2.0899429460714294,0.0
mp-560929,Cr1F6Na3,-3.0692531929655167,0.0
mp-761010,O7P2Ti1,-2.7170327282619042,0.0
mp-30145,Bi8Rb2Se13,-0.8076433808899455,0.006546638563604475
mp-645799,O9P2Pb2V1,-2.4366317262797614,0.0008095670425655653
mp-16980,B4O7Rb2,-2.7603632125320505,0.0
mp-620372,Rb2Se5,-0.9185783548883931,0.0
mp-706386,F4H6O3Zr1,-2.2532856057142863,0.0
mp-622258,O8Rb1Sb1V2,-2.2435381941666663,0.0
mp-761827,Cu1Na3O3,-1.4473375297721682,0.0
mp-504580,Cu1O3V1,-1.7935436244999998,0.06316489999999639
mp-667310,Al1O4P1,-3.0954548149404766,0.0
mp-24657,B1H4N1O8P2Zn1,-2.0340734309313717,0.0
mp-550070,Br2Nb1O1,-1.7671710875000013,0.0
mp-24428,H2K1N1,-0.4309546649999998,0.0
mp-696746,B4C1,-0.029008153499999405,0.03758475563461583
mp-556525,Ba1Nd2O5Pt1,-2.9749695504166667,0.0
mp-2576,Ge1Sr2,-0.6204755550000011,0.0
mp-5575,Gd1O4Ta1,-3.6895941866666675,0.0
mp-555552,K1Na1O4S1,-2.2017928215899008,0.014228915535456719
mp-571035,Cl4Os1,-0.5164849280000027,0.0
mp-677262,I4In1K1,-1.1029364960555554,0.012714670416671256
mp-4531,N1Na1O3,-1.0017702027499993,0.0
mp-557009,S1Zn1,-0.9616248816562504,0.0
mp-704203,Li2O13P4V1,-2.616142196636905,0.04614317933249623
mp-505424,Cd1Cu1O4V1,-1.728122112142857,0.03844092392856879
mp-3552,Li2O5Si2,-2.86243061925926,0.0
mp-10402,F6Ti1Tl2,-2.9633930246296307,0.0
mp-753009,Ag1F3Li2,-2.4187337447222217,0.019543975555609272
mp-23660,C2Cl1K1Na22O42S9,-2.1950887036722464,0.0
mp-29903,F5Te1Tl1,-2.417649766428571,0.0
mp-23183,Cl3Nd1,-2.7479433493750003,0.0
mp-4734,Na1O3P1,-2.6309152926211006,0.0
mp-542331,O7P2Zn2,-2.1942416847456827,0.0
mp-29596,Al1Ca3N3,-1.2290885548214285,0.0
mp-11116,Cd1Cs1Se3Y1,-1.5960111044381584,0.0
mp-545598,Cd1O4U1,-2.9197434058333323,0.0
mp-752725,Ag1F2Li1,-2.1004673237500002,0.0
mp-29611,B5H8,-0.0552322076486018,0.03245150626273596
mp-18651,Dy1O6Rh1Sr3,-2.9249512778787876,0.0
mp-769962,Fe3Li4O8Ti1,-2.2466502635416656,0.026985088124880985
mp-18840,Ba1Mn1O3,-2.600548739563218,0.0
mp-735567,As2H4O9V1,-1.6329401821875003,0.0
mp-559447,F1Gd3O12Se4,-2.1910138511874977,0.0
mp-29745,Mn2Na2Se3,-1.1338076044504308,0.0
mp-29721,B3H5,-0.04114488109375003,0.011666799408928424
mp-776648,F8Fe3Li2,-2.702931191282052,0.023509696923007084
mp-555852,Ag2Ge1Rb2S4,-0.883340461481481,0.0
mp-12984,Cu1Se2Tb1,-1.4531243278385402,0.0
mp-28557,Ag2Cl4Pd1,-0.5746215314285702,0.0
mp-568611,Cu1K1P1Se3,-0.7205596542651291,0.0
mp-569677,I1N1Sr2,-1.331642372187499,0.0
mp-776104,K2O1,-1.1972152611666662,0.0
mp-4975,F3Rb1Zn1,-2.796601447,0.0
mp-630866,Cl1Fe3O8Pb4,-1.5351855243749997,0.04846602875327055
mp-555884,Cl1Cu1Er1O6Te2,-1.9991881773484836,0.0014866246284703586
mp-1019561,Ca2Ge1O4,-2.801815411428571,0.0
mp-722280,Cl3Cu1H4Li1O2,-1.3257301746212122,0.010927148863659268
mp-5515,Li7Mn1N4,-0.7267230068666185,0.0
mp-556551,Cl1Gd1O3Se1,-2.4565309049739574,0.0
mp-768556,B1Na3O7P1Sb1,-2.409729327954243,0.045747722485277094
mp-1020108,Ca1Li1Mg1N3Si1,-1.1681441919047626,0.005561098573467252
mp-36600,Ag3Br1S1,-0.22450059356249596,0.04470550100000028
mp-776097,Hf1O2,-3.875663368888891,0.0
mp-763454,F3Li1Mn2O1,-2.669931937206486,0.058433116071073855
mp-561125,Ba5Br1O12P3,-3.275058152857143,0.0
mp-18132,K4Se4Sn1,-1.2096141087499999,0.0
mp-24747,H6Na3Rh1,-0.41853612074999946,0.0
mp-763992,F1O11V6,-2.5218294293749994,0.017854203888807676
mp-504535,H1In1O2,-1.5889049896875012,0.0031052712499961554
mp-557163,F7Pb1Ta1,-3.2045170483148127,0.0
mp-674363,O12Sc4Zr3,-3.8032511147368413,0.055743361279580406
mp-23519,Bi2Ga4O9,-2.073427549666668,0.0
mp-746371,As2Co2H1K1O8,-1.6694339470357147,0.0
mp-556767,Cl1F3,-0.9564604781250003,0.0
mp-28216,Ge4Lu6O17,-3.1340161472222205,0.0
mp-756746,O4Pb1Rb4,-1.3705737727777791,0.0
mp-5626,K3Sb1Te3,-0.9639885159285713,0.0
mp-28971,O5Rb2Si2,-2.8870809588888897,0.0
mp-39215,B6Ga1O12P1Zn3,-2.398685413788819,0.0
mp-5367,K5Sb3Sn1,-0.4831203866666666,0.003898763263889037
mp-776616,F7Li1V2,-3.142202392583333,0.011098651396364545
mp-667383,O2Si1,-3.0373505375793677,0.0
mp-1019579,Ca1Mg3N4Si1,-1.1657798629166665,0.0
mp-707276,F3H9N2O5S1Te1,-1.3677042188293658,0.0
mp-2651,F3Pr1,-4.411933416875001,0.0
mp-23291,Cl2Pb1,-1.3087380625000027,0.0
mp-7079,Ca1O7Si2Zr1,-3.505867631931817,0.003403385454485627
mp-775170,Al1Cr2Li2O8Sb1,-2.499739121428573,0.008142124347285926
mp-675295,F3In1P1,-1.6280682981666665,0.6396821445714362
mp-755206,Ca2N2O11Ti6,-3.1470132182142847,0.05897123702686848
mp-769618,Ni4O9P2,-1.923886719119046,0.03586230100003007
mp-771121,Hf1La2O5,-3.962639332343751,0.0230981768749583
mp-18825,Cr1O4Y1,-2.765228395277777,0.0
mp-7323,B1Be2F2O3Rb1,-3.1734621553240734,0.0
mp-554383,Na2O5Si2,-2.9019977746503827,0.0
mp-556469,O2Si1,-3.2563476918749994,0.0
mp-541062,As3Ca3Ga1,-1.1951056010714285,0.0
mp-28595,K1Na1Se1,-1.3132737584375,0.0
mp-695929,B6Br1Cs3H12S4,-0.6985029693832886,0.0
mp-771955,Br9La1Sr3,-2.437711450423078,0.015028319038462494
mp-7148,K2O7Sr1Ta2,-3.144033925972222,0.0
mp-30001,Ba16N19Nb5,-1.0186371948749993,0.0
mp-758233,Nb9O25P1,-3.011102825632653,0.028767252857143637
mp-559319,O7P2Zn2,-2.2171009171320333,0.0
mp-707342,Br7H18N6Ru2Zn1,-0.6631127032352943,0.03402952808127481
mp-33322,Ho1Li1Se2,-1.9473703461979177,0.0
mp-556328,As1S1,-0.13438168859375033,0.0
mp-2961,Mg1P2Si1,-0.41989534166666687,0.0
mp-555184,Cl1O3Sm1Ti1,-3.5112058424305546,0.0
mp-560791,Cs1Na1O3Ti1,-2.747971501511015,0.0
mp-763787,Fe8O9,-1.4872870428676475,0.044413981176473986
mp-28456,O14Os3Sn15,-1.2724802496875043,0.0
mp-675068,Nd2O19Zr8,-3.6818163510775848,0.0
mp-705301,Co1Li1O7P2,-2.2978030093290043,0.0
mp-770743,Hf2Li2O5,-3.3538752012962965,0.0789042675000344
mp-3404,O3Rb1S1,-2.078371613708334,0.0
mp-17095,Cs1Cu1Se4,-0.7390862933010057,0.0
mp-686004,Cl6Li3Sc1,-2.2973360417499995,0.01600813324999777
mp-554759,B1N1O1Sr1,-2.238383647500001,0.028977339607860753
mp-771335,C1Na3O7P1Sn1,-2.2307162109029615,0.03822340006373592
mp-7094,Ag1O4Re1,-1.3521912929166693,0.0
mp-698353,Bi1C4H10K1O13,-1.4699569673017245,0.0413626992672428
mp-29605,O4Pr2Sr1,-3.5015968516666662,0.046121873214284036
mp-5985,Ho1O4Ta1,-3.5960927353888885,0.0
mp-510032,Ge3Os2,-0.06286672600000003,0.0033006440000008298
mp-29218,Bi2Ge3O9,-1.980518865625001,0.005227894464287175
mp-22569,In1O4P1,-2.470913024722222,0.0
mp-558748,O3Sc2,-3.796747365666668,0.0
mp-20352,Ba3In2O6,-2.503953193863636,0.0
mp-27367,F2O1Se1,-1.7745964908984377,0.0
mp-763256,Co1Li1O4Si1,-2.322383029761905,0.04657210197674796
mp-6267,B1La1O5Si1,-3.435388803541667,0.0
mp-18996,O8Tl1V3,-2.3079837158333354,0.0
mp-22870,Br1In1,-0.8189531424999998,0.0
mp-27823,Cl1O1Sm1,-3.398924167500001,0.0
mp-763927,F5O7V6,-2.7524568024999994,0.024635055555381296
mp-568986,Au1Cl4K1,-1.3217739913333333,0.0
mp-23534,I5K1Sn2,-0.9935859402812497,0.019943900104166246
mp-18130,Nd2O7Si2,-3.6041708980681815,0.0
mp-776896,Nb2O5,-2.6469835907142873,0.0
mp-686467,La6Mg3O60Sr14Ti17,-3.5884842536500003,0.0071546136227863145
mp-555396,Cl1Mg2O4P1,-2.900176417291666,0.01594858935323984
mp-540569,Cr5Cs1S8,-1.0879278537807875,0.0
mp-556985,O2Si1,-3.223824158333333,0.0
mp-569378,Ag1Rb3Se12Ta2,-1.0207027109606486,0.0
mp-766176,Bi1Li1O4Si1,-2.526073270833333,0.023689681258661364
mp-721924,Ca1Fe3H1O9Si2,-2.469306008359375,0.0
mp-559144,Ge1O5Pb3,-1.7259360737499998,0.006652619706779304
mp-772721,Bi9Li1O26Si6,-2.3953835375198413,0.029213557827393714
mp-771909,H3Li4Mn2O16P4,-2.4066401312940937,0.03006702483576103
mp-29827,Hg5Rb4Te13,-0.6439683496212131,0.016812958750000107
mp-29009,Br4Li2Mg1,-1.8016420026190474,0.014540987142857073
mp-675069,Li1Nb1O3,-2.890076778023809,0.0
mp-6055,O4Si1Sm2Te1,-3.2781064598958345,0.0
mp-770562,Al1Cr1Li6O6,-2.362629596785713,0.10490968125241652
mp-752432,Gd3Nb1O7,-3.53336012,0.005362735454539802
mp-4226,Cr1Li1S2,-1.2531546473958333,0.0
mp-755717,Ho1O3Sm1,-3.792554419999999,0.06690749462497862
mp-27559,Cd2Na14O9,-1.4537626126724132,0.0
mp-29365,Bi1Li5O5,-1.9488605756060615,0.0
mp-1958,Sr1Te1,-2.0176923,0.0
mp-773191,Cr3Li6O16Sb3,-2.1250135107142856,0.07957500875993061
mp-560064,O2Si1,-3.0314617692013903,0.0
mp-559627,Li1O9P3Pb1,-2.554765348554422,0.006835915327245955
mp-1004532,C1Cl4,-0.6422854807500002,0.0
mp-777891,F4Fe1Li1,-2.755133740138889,0.002276242685136154
mp-18962,Ca1Mo1O6Sr2,-2.8480401785833336,0.0
mp-29085,F22Sr5Zr3,-4.158921472444444,0.0
mp-510646,P1Pb1S4Tl1,-0.7249107711394552,0.0
mp-33872,F31Na7Zr6,-3.7449457376988664,0.0033321949431410758
mp-769278,Cu1Li1O4P1,-2.132429119880952,0.042708045358219086
mp-19406,La2Mg1Mn1O6,-3.191071561043105,0.0
mp-765076,F2Li1Mn1O1,-2.6183899655028737,0.02180118974990215
mp-27390,F9K5Th1,-3.4930214590833315,0.0003161916665471646
mp-27678,Cl3Y2,-2.092601786499999,0.0
mp-565757,Gd2O6W1,-3.260511686666667,0.0
mp-11790,Cu1La1Se2,-1.5713276717968752,0.0
mp-753063,Cu1F6Li3,-2.600471927,0.0
mp-30157,Cl5Dy3S2,-2.5896236568749997,0.01953396099995004
mp-540496,Cu1O3P1,-2.1953343920192308,0.022163300749900118
mp-1013850,Li1O9P2V2,-2.6714664245535715,0.008814657813700373
mp-504482,Al1In1S3,-1.0019129533541673,0.0
mp-6500,F6K1Rb2Sc1,-3.5702670837249997,0.0
mp-570492,Cd1I2,-0.8603860252820517,0.0
mp-557397,F6K2Mn1,-2.8903509886034477,0.0
mp-28978,Ba2S3,-1.9202556748750006,0.06377210099999786
mp-23383,Br6Rb2Te1,-1.4696728868518507,0.0
mp-755001,Er2O6Te1,-2.9808049940740733,0.0
mp-777466,F4Fe1Li2,-2.893986117916667,0.013517847857180243
mp-766855,Ba1H9I1O5,-1.4877801821093755,0.009799292812515015
mp-568619,C1Si1,-0.2028641352500003,0.0
mp-646007,Cs2N2Tb6Te7,-1.6849776979986482,0.0
mp-677222,Ba3La3Nb1O18Ti4,-3.537035031149425,0.06657360405197245
mp-570738,Ga1I2,-0.7614954302777781,0.0
mp-644003,Ba1Co2H2O9P2,-2.3101261500260417,0.017436936409044534
mp-13643,Er2Ge2O7,-3.0758808226136356,0.0
mp-568890,Cd1Ge1Te4Tl2,-0.47885928229166597,0.005144809442986231
mp-697758,Fe1Li1O7P2,-2.494165738068182,0.0
mp-770660,Cr1Ga11Li12O24,-2.3327447496354172,0.03287478541677095
mp-753153,C1Dy2O5,-3.254928851041667,0.0
mp-560927,Al2O9Y4,-3.788126147833332,0.011269568233320133
mp-761118,O20Sn3Ti7,-3.030181722111111,0.05351639391661678
mp-7020,Li1O2Y1,-3.2453048889583327,0.0
mp-571448,Cl6Cs2Pu1,-2.329986630651341,0.0
mp-672200,C2N3Rb1,-0.25824072041666685,0.0
mp-560340,La2O5Pd2,-2.5729095709722234,0.0
mp-555941,Al1O4P1,-2.8911697396626983,0.0
mp-39886,Ba1Bi1Ca1La1O6,-2.6256978007499994,0.15497145289280248
mp-774754,F13K1O8Re4,-2.4782452748269246,0.0016627087499625321
mp-20782,In1Li1Te2,-0.7897566754166689,0.0
mp-18757,Cd1O6Sr2W1,-2.592109218499999,0.0
mp-35659,F6Hg1Pb1,-1.8560364503125015,0.0
mp-776404,O2Zr1,-3.7779048216666666,0.0
mp-767633,Li4O20Ti9,-3.2486434532828286,0.02837147860757031
mp-1016879,Cd1O3Si1,-2.16928971125,0.0
mp-561141,K1O7P2Y1,-3.1139734103668815,0.0
mp-638078,Cs1Tb1Te3Zn1,-1.3117054596551718,0.0
mp-775178,F3Fe2Li1O1,-2.3475839911904757,0.029134661785790224
mp-767601,F2Li6Mn2O5,-2.313318772640805,0.07031081700044695
mp-540945,Ga1Li3Na2O4,-2.0784458798103445,0.0
mp-560571,La1P1S4,-1.3227928334126962,0.0
mp-541995,F1La1O3Si1,-3.6685006854166664,0.006944651619603448
mp-2341,Li3N1,-0.4785742609375001,0.0
mp-10577,N5Nb1Sr5,-1.0419662175000008,0.0
mp-16060,Ag1Au1F4,-1.4057312886111106,0.0
mp-3082,Ca1O4S1,-2.4049881851909714,0.0
mp-19131,B1Li1Mn1O3,-2.5149301452801733,0.0
mp-720554,F1H4Li1N1O3P1,-1.7989474779978345,0.013806504581779355
mp-625890,H5I1O6,-0.9796536058333339,0.01556840468749865
mp-770289,Ho2O7Zr2,-3.821326209999998,0.09738017698866162
mp-5611,Ba1O4U1,-3.4710249095833348,0.0
mp-38222,C1N1Na1,-0.2880600779597711,0.20301879854166746
mp-17834,La2O4Se1Si1,-3.4551858468554686,0.0
mp-31243,As2Ba1,-0.9286513888888932,0.0
mp-4223,Na3O4P1,-2.521095413029813,0.0
mp-776225,Hf2N2O1,-2.5319189517500007,0.0
mp-557668,F6Mn1Pt1,-2.084682397435346,0.0
mp-772118,C1Cu1Na1O7S1,-1.675364458989028,0.02946162831365355
mp-752411,O7Pb2Tm2,-2.5489617067803025,0.021247311477529382
mp-754610,Ca1I8Sr3,-1.89914733,0.07971296291666678
mp-656887,Ni3O4,-1.089122990000001,0.0
mp-684990,Al2O3,-3.232471680916667,0.0
mp-570623,N2Pr4Te3,-1.7114970416666664,0.0
mp-583052,Cu1Lu1Pb1Se3,-1.2206350936718753,0.0
mp-12908,Ag1Sc1Se2,-1.32260831533854,0.0019974803124989116
mp-775011,Fe3Li2Nb1O8,-2.18020397547619,0.010505108928512133
mp-16990,Ba10O24P6S1,-3.261439611295732,0.0
mp-767678,Cr3Li8O12Te1,-2.146885596388889,0.09261383125067961
mp-625657,H1O3Te1,-1.358439750583333,0.0
mp-555512,C1O2Rb1,-1.8968666309374997,0.0
mp-756581,Li1Nd1O6Ti2,-3.3988690967500004,0.07652707949997292
mp-27859,F6I5Sb1,-1.584401674861111,0.0
mp-558798,Bi1O4P1,-2.4158574974404754,0.0
mp-675033,Ag2Ga12Te19,-0.3324141906062109,0.054654328383838276
mp-35785,Cd1S4Y2,-1.9546528129761904,0.0
mp-746071,Fe1K1O4P1,-2.3633936262619053,0.0
mp-686765,Cd1F1O6Ti2Y1,-3.1858369312121213,0.1412425717195757
mp-11321,O7Ta1Y3,-3.7425689270303026,0.0
mp-23228,Cl5P1,-0.6468731454960318,0.0
mp-505464,Cs2Te13,-0.6232143988352485,0.0017476556666670953
mp-768078,Cr4O13Si4,-2.724393923928571,0.07445606023803734
mp-755804,Lu6O12Te1,-3.6526037242982454,0.0
mp-707866,H6O5Sr1Zn1,-1.6848163977243589,0.0
mp-12641,Ba2Ho1Nb1O6,-3.4661690829999996,0.0
mp-768353,O3Tm1Y1,-3.9563739555833317,0.0027986568750357323
mp-756451,Ca1I4Pb1,-1.4063925425000008,0.00010831875000076134
mp-625397,H1Nd1O1,-2.211047908392857,0.0
mp-12023,Cu2Mn1S4Si1,-0.7555931409913779,0.0
mp-697926,Cd2H1Li1O7Se2,-1.533717573982371,0.0
mp-28809,B1S3Tl1,-0.6733085745000004,0.007055369751147645
mp-570339,Cd1I6Tl4,-0.8692920798484874,0.014299846818182001
mp-755375,Lu2O7Pb2,-2.5335388023484837,0.04737561988638106
mp-19025,La1Mn1O3,-2.9296255758362064,0.0
mp-14552,Ba2O6Sr1U1,-3.5103494629166674,0.0
mp-542951,Cl6Cs2Ho1Na1,-2.4993749395689653,0.0
mp-769398,I1Na3O1,-1.4740171243477014,0.0034693536666621227
mp-764348,Fe1Li1O4Si1,-2.51874198047619,0.001767453928728965
mp-568001,Al1Cl4Hg2Sb1,-1.0744828245312519,0.0
mp-558534,B5O12Tm3,-3.373581049166668,0.0
mp-690653,C1H3N4Na1O1,-0.5804413162801729,0.0831807893474668
mp-21266,B1O5P1Pb1,-2.5439263768303566,0.0
mp-775326,Li2Ni1O8Ti3,-2.9591224035119055,0.0
mp-765686,Co4F8Li2O1,-2.3424790016111117,0.06750488366654679
mp-772811,Ge2Na2O5,-1.922382637500001,0.00927495892854561
mp-676561,Ag3I1S1,-0.25960873949999874,0.054318345000000434
mp-680198,Cs4P5Se17Th2,-0.9724798895158366,0.0
mp-638686,Ag1N1O3,-0.681480438083333,0.0
mp-6449,Cd1Cu2S4Si1,-0.7553361756249988,0.0
mp-1019105,Bi1K1Mg1,-0.4677607240833324,0.0
mp-24397,H8Mg1O8S1,-1.6525589858680556,0.018585760968505047
mp-754712,Cl1N1O3,-0.05059469424999889,0.0
mp-766600,Li4S4Ti1,-1.4789592779629628,0.0
mp-676049,B1F4K1,-3.231919057027777,0.0
mp-31287,Br5Pd1Tl3,-1.0412738405555575,0.0
mp-581644,O7Si2Y2,-3.668284935757577,0.0
mp-698074,Ca2H2O9S2,-2.36829742811111,0.020439556166647794
mp-6765,Al1Ge1Li3O5,-2.63029442525,0.0
mp-777785,F4Fe1Li1,-2.7625051855555562,0.002276242685136154
mp-3790,Nb8O14Sr1,-2.6633868097826086,0.0
mp-14676,Nd1O19Ta7,-3.2124699134753105,0.0
mp-27871,Br3Rh1,-0.6630435124999998,0.0
mp-24479,Br2H2O7Sr1,-1.1842888373263882,0.012973729792293831
mp-22925,Ag1I1,-0.49067647583333196,0.0
mp-36791,Li1Nd1S2,-2.03653448526042,0.02040974000000073
mp-571637,Cd2K2Te3,-0.9044758605238085,0.0
mp-765692,Co2F3Li1O1,-2.1886060872619053,0.04921708357131698
mp-562726,Cs1Ga1S3,-0.9883059401875016,0.0
mp-3031,Ba1O5Si2,-3.36151656078125,0.0
mp-3491,Nb1O4Sb1,-2.242651945000001,0.0
mp-27787,Cl10Nb1P1,-1.4555532090277776,0.0
mp-23417,I5In1Sn2,-0.7323693337499999,0.02254896069444473
mp-7394,Ag2Ba1Ge1S4,-1.0208758451041664,0.0
mp-27907,Pb4S13Sb6,-0.6163527995923908,0.020114302608694724
mp-5468,Al1F6Na3,-3.344154470499999,0.0
mp-27307,F6Na2Zr1,-3.632294241455938,0.0
mp-4126,K1O3U1,-3.34006742185,0.0
mp-643759,F3Ga1H3N1,-1.7704022004687503,0.0
mp-578931,Cu2O4Se1,-1.039488921049107,0.014638604315478128
mp-771166,As1C1Na2O7Sb1,-1.9309205018211202,0.008742317725856688
mp-764949,F3Mn1,-2.7608555063577587,0.0
mp-19330,Ca1Mo1O4,-2.7855026891666674,0.0
mp-720847,B1Cl2H2N1,-1.0965992070833326,0.004802525277776286
mp-606644,Cu1P10,-0.06378906588744568,0.0
mp-561237,B1Ca1Li1O3,-3.009753449583334,0.00012816500005641274
mp-28250,Br4Li2Mn1,-1.6180149654022975,0.014074028571428698
mp-757176,Ba1F5Y1,-4.274512381071429,0.0001742715711700831
mp-753444,Bi1Li3S3,-1.1496792666964286,0.02562093928572016
mp-20098,Ba2O4Pb1,-2.3697668864285713,0.0
mp-505187,K6O5Pb2,-1.5171660278269232,0.0
mp-626819,H3O5Re1,-1.6457243743055554,0.0
mp-17315,F12O1Tl2Zr3,-3.612309359675927,0.0
mp-24084,H1K1,-0.28957170124999987,0.0
mp-557746,Cl2O3Se1Zn2,-1.523899549042969,0.0
mp-768358,In1O3Sc1,-2.91001546125,0.0739277762501402
mp-4770,Na2O4S1,-2.000809115401786,0.0
mp-554722,Ga1O6Y3,-3.5618639439999997,0.0046904244999744545
mp-560173,Al1K1O4Si1,-3.188485931023809,0.0