Material ID,Compound,Energy,Hull Distance
mp-559539,Li2O15P2U3,-3.2219242076569334,0.0
mp-774230,Li4O16Ti5V3,-3.002087958571429,0.021770217615618544
mp-771132,Ba3Ga4O9,-2.6823072973437507,0.0
mp-18414,Ba1Be1La2O5,-3.4851709516666665,0.0
mp-555574,Dy2O3,-3.909766931666665,0.0
mp-679,Er2O3,-4.05785747325,0.0
mp-505435,Br3Gd2N1,-2.1580426368750047,0.0
mp-2457,O3Tb2,-3.886385399666669,0.0
mp-696075,Ca2H2O9S2,-2.313736145444443,0.020439556166647794
mp-675152,F19Nd1Pb8,-2.7548596651190564,0.054028959523664453
mp-687234,O8P2W1,-2.4070042058441548,0.0
mp-29787,Ba5O9Pt2,-2.3102811915885404,0.0
mp-676801,F31K7Th6,-4.093184336784091,0.0
mp-640950,B9Na1Se8,-0.5174013394149092,0.0
mp-624214,Bi2Cs3I9,-1.252939012413793,0.0
mp-653287,Cr3F19Pb5,-2.8377079552777777,0.018350847222241333
mp-23341,Bi2O7Pt2,-1.3406293496590904,0.0
mp-7688,Cd1Ge1Li2O4,-2.111298948958333,0.0
mp-24157,F1H8N2O3P1,-1.3391272004722217,0.0
mp-560614,K1Li1O4S1,-2.2977339667083325,0.0
mp-27694,Cl1H3O5,-0.8179094268055549,0.0
mp-705011,Fe1Li1O7P2,-2.3501032576136365,0.0
mp-773141,Ba1Cl5La1,-2.841574641428572,0.06202267517857507
mp-570080,Li2Se3Te1,-0.8682615092274304,0.0005934633944496189
mp-11054,Rb1Sn1,-0.2786498643749997,0.0
mp-545512,Ca1O1,-3.241617494375,0.0
mp-504871,Cu1O7Sr1V2,-2.3441494147727284,0.015836652329416525
mp-768921,B2Li8O7,-2.3997774310294107,0.06675149808823189
mp-685370,O7Ti2Y2,-3.7215724737499998,0.008806482045462164
mp-16995,N11Si6Sm3,-1.5616563718125007,0.0
mp-556918,Nb1O5P1,-2.6397737250680273,0.0
mp-752442,Ba1Lu2O4,-3.692909666904764,0.005037385059598165
mp-13109,Hf1O3Sr1,-3.7245972809999985,0.0
mp-605034,F6K2Ni1,-2.3907380412222228,0.0
mp-690725,Cu1H1O5S1Tl1,-1.4681474593981494,0.010804331527792933
mp-758814,As2Ca1F18H6,-2.3490701894444443,0.0
mp-753653,H3Li1O16P4Ti2,-2.61002962470467,0.05672262163505884
mp-680432,Al6O19Sr10,-3.310855046857143,0.013645899392902347
mp-770387,Al1Li1Mn1O4,-2.5113166316091955,0.04507383607008413
mp-767328,Fe5Li5O24Si7,-2.5705966972357728,0.0775010326219488
mp-29359,Cl4Na2Pd1,-1.417687710357144,0.0
mp-14506,Al7Te10,-0.5466500408823549,0.007623707352941319
mp-744002,C3Co1H16N8O7,-0.7378352018571434,0.10446793026535306
mp-23484,Au1Cl3Cs1,-1.414001669586207,0.0
mp-32069,Mo5O16U1,-2.2283843131818175,0.03198802810070363
mp-775861,N2O1Zr2,-2.3324936107499967,0.0
mp-11794,Ag1Al1O2,-2.2437204172916667,0.0
mp-19710,Fe5O12Tb3,-2.539728356874999,0.0028136113750040436
mp-559407,Gd1H2Na1O9S2,-2.2609381110919533,0.0
mp-626263,Ba1H8O5,-1.3975759008333333,0.0
mp-35388,Li1Se2Sm1,-1.8944072770052083,0.0
mp-698018,Al1H2Li1O7Si2,-2.6876129811217946,0.00759473241621359
mp-4829,F6Na2Th1,-3.831392792777775,0.0
mp-754302,Dy2O7Zr2,-3.819731520568178,0.08609121318179223
mp-775520,Co2Cr3Li4O16Sn3,-1.9910405213690479,0.09806494866117431
mp-29375,In1Na3S3,-1.1950278523614533,0.0
mp-775936,C1Cu1Li1Na3O7P1,-2.1196147985765594,0.09168604984613563
mp-754403,O2Zr1,-3.739216265000001,0.0
mp-755829,B1O3Sb1,-1.9612573037500014,0.04677055691644192
mp-35591,Er1Li1S2,-2.0974938223958337,0.0
mp-705906,La3Mn4O12Sr1,-2.89091294441954,0.00076238862502791
mp-677709,Na3Nb3O30Sr7Ti7,-3.311957765349425,0.024100074100417715
mp-753801,Cs2O3Sr2,-2.112602469285721,0.06726480999997797
mp-23804,Fe1H6Mg2,-0.39694997083333305,0.0
mp-554441,Ga5Na1O12Ti2,-2.6319345917859196,0.0011988289999120382
mp-640053,Cl3Cu1Rb2,-1.6221433533333343,0.007813277749998923
mp-554988,Ag2Ge2O5,-1.488444507824074,0.005639045277787445
mp-764752,F7Li1O1V2,-2.9310490362121224,0.07527482937501678
mp-505496,N7P4Rb1,-0.6871483590476188,0.0
mp-643666,F4H5In1N1O1,-1.692803319479167,0.03843595009673351
mp-570270,Cl3Nb1Se1,-1.5638263454687498,0.0
mp-18629,Ge1Na1O4Tm1,-2.900158869031198,0.0
mp-752520,Gd1I1O1,-2.4775301833333336,0.0
mp-18177,As3Ba3Nb1O1,-1.51803239765625,0.0
mp-555730,Al2Ca3F14Na2,-3.879679720607554,0.008692941904801696
mp-763912,F1O5V3,-2.584184908888888,0.00132751277769769
mp-559161,Cd1Cr1F6,-2.610029320625018,0.0
mp-1008680,Ge1Pt1Ti1,-0.9806829755555526,0.0
mp-19167,Ni1O2Rb2,-1.310919112500001,0.0
mp-3632,F1S1Y1,-3.306057259270837,0.0
mp-555095,Ba5N1O18Re3,-2.5562896126851857,0.0
mp-29138,Au1K1Se2,-0.708253691718749,0.0
mp-755053,Ga4O8Si1,-2.432113206923076,0.06824120384615913
mp-763427,F5O7V4,-2.524501317109375,0.007726934583272893
mp-753619,Ba1O2Sr1,-2.8939473737499997,0.02610232500000187
mp-755322,Ba1Na6O4,-1.6728017099373036,0.018199442727256224
mp-697033,C1Cd1Cl2H4N2O1,-0.9338853587500008,0.0
mp-741045,Al1H1Na4O9P2,-2.6309561213455046,0.0
mp-5081,Cu1S2Sm1,-1.6038039232812498,0.0
mp-775027,Co1Li2Mn3O8,-1.9181161500328412,0.0024616260267702472
mp-14305,Lu2Mn1S4,-1.931858224466341,0.0
mp-653561,Ge1Pb1S4Tl2,-0.7002735814583341,0.0
mp-28323,Cl2O1Pd2,-0.5622387719999977,0.035584867666666756
mp-33029,Nd2O3,-2.85348641425,0.0
mp-29835,K2Sn1Te3,-0.8392744575000014,0.0
mp-1019587,Al2Ca1O6Si1,-3.39489430475,0.01644746545951037
mp-560830,Cl1Nd3O8Si2,-3.5883470819642858,0.0
mp-28270,Cu1K1S1,-0.9292913745416668,0.0
mp-558325,K2Nb5O15Y1,-3.0767084816086965,0.02811177872227503
mp-626835,H8O6Pt1,-0.9063377973333331,0.04856876099999947
mp-561414,Br5Hg3K3O6S2,-1.5658221914078954,0.047480223829267074
mp-772882,Dy2Ge2O7,-3.0284248580303004,0.0
mp-774332,Co2Na2O3,-1.4178541856219202,0.016663593809544457
mp-17057,F2Se3Sn1Sr2,-2.3146893680859417,0.012221042812350369
mp-767617,F4Li1V1,-3.144520950555556,0.0
mp-776510,Li3O29P8Sb3,-2.4320845889451816,0.007009920523025125
mp-754218,O2Se1Tb2,-3.439208805135415,0.0
mp-774651,As1H2Li1O5Zn1,-1.7594170443333332,0.022249270740865155
mp-776135,Fe23O32,-1.5597522541818194,0.22058980318181823
mp-733790,O2Si1,-3.039244523055555,0.0
mp-759658,Ag1F2Li1,-2.1463536362499998,0.0
mp-390,O2Ti1,-3.3220194555555564,0.0
mp-542264,Ba1C4Ce2F1Na1O12,-2.6982949989942515,0.0010207702777400467
mp-771190,Cr1Mn15O32,-1.7687985014367815,0.04323118713532015
mp-570123,Bi1Cl6Cs3,-1.8385831682499998,0.0
mp-772222,Cl1O1Tm1,-3.4100839175000055,0.0
mp-27127,O9Te4,-1.449302981858973,0.0018124651923066347
mp-4753,Al2O5Si1,-3.372140816249999,0.0
mp-4950,Ca1F3K1,-3.7010561501,0.0
mp-19077,As1Cr1O4,-1.9635485395833296,0.0
mp-3962,La1O4P1,-3.5035234547222216,0.0
mp-760162,Bi1F1O1,-2.2145201166666673,0.0
mp-31369,B4Gd2O9,-3.2594609782777773,0.0
mp-31104,Bi1K1,-0.374647080875,0.0
mp-766457,Li1O7P2Sn1,-2.5006500781926393,0.04799705386404279
mp-2882,Cu2O5Y2,-2.47471321722225,0.04216559515433479
mp-768283,As2H6O11U1,-1.8520157327500002,0.003008051954496338
mp-28432,Cd2I7Tl3,-0.8852130554166665,0.0
mp-581738,Bi1Cs3Se3,-1.145984489598216,0.0
mp-763920,Co1Fe5Li6O12,-1.8636515191666672,0.04540816854180315
mp-755084,Mg1Na6O4,-1.6612284822727268,0.010950832272728145
mp-27185,F25K1Th6,-4.36660792691406,0.007921375416467313
mp-1019591,Ce3O8Zr1,-3.867706567083333,0.03307907666673948
mp-541657,Ba1H2N2O5,-1.409062466333334,0.06381990891844147
mp-763943,F5O7V6,-2.744113683541666,0.024635055555381296
mp-13775,Gd2O7Si2,-3.4679291570454556,0.0
mp-764189,F7Li3Mn2,-3.015733809446838,0.04951074708331227
mp-28717,As4Cu6S9,-0.43785024200657874,0.0
mp-27317,As1F8Sb1,-2.5575099562500005,0.0
mp-553916,S1Zn1,-1.062297226979167,0.0
mp-763359,Co1Cr2Li1O6,-1.8613186830833328,0.10327615649977488
mp-37498,Cl2Li5N1,-1.2383001133854155,0.005312405625002459
mp-24302,As2Cd1F13H1,-2.3685550961029413,0.0
mp-7423,O8Re1Sm3,-3.2775221729166653,0.0
mp-28768,Na4Se4Sn1,-1.098650292916667,0.0
mp-754967,Ba1O4Te1,-2.247259374027776,0.0
mp-770717,C1Na2O7P1V1,-2.436079689182232,0.0
mp-769322,Mg1O3S1,-2.281172276875,0.03658874196369588
mp-755543,H1Ho1O2,-2.896473043437471,0.0
mp-29426,C2I9Y5,-1.4543632223437504,0.0
mp-25418,C1Li1O7P1Ti1,-2.674080471249999,0.02444246295461157
mp-767417,Al1C1K2O7P1,-2.3909327819146817,0.03167590428524362
mp-722865,H8N2O5Se2,-0.9161106044669116,0.08857151696913444
mp-2201,Pb1Se1,-0.6725727545312452,0.0
mp-559554,Li2O3Te1,-1.817452923888889,0.0
mp-5690,Gd1O3Sc1,-3.8186932895000014,0.01294189375000343
mp-755832,Gd1Na5O4,-2.0551379712758617,0.02565719637497992
mp-764280,F4Li2Mn1,-3.0386695085139572,0.01941146571428882
mp-541745,Nb2Rb3S11,-0.9741058031054681,0.0
mp-555955,F1La1O3Se1,-2.8199642725434035,9.505898117663965e-05
mp-706611,Be1F4H4Li1N1,-2.1150172418939395,0.024526742528201338
mp-753769,La5Li3O12Sr3,-3.273517569130435,0.03762364282609284
mp-401,S3Sc2,-2.171056859687499,0.0
mp-769915,Ga2La4O9,-3.4044162563333344,0.0
mp-680168,C2K2N2Re3Se5,-0.6880161198370526,0.0
mp-40575,H3Li1Ni2O14P4,-2.229542796902281,0.0
mp-772320,Co1Li2O4Si1,-2.439030330833333,0.0
mp-561173,Cu1S7Si1Y3,-1.8123294168229165,0.0
mp-18725,Cr1O3Y1,-3.224445714500001,0.0
mp-767649,F6Li2V1,-3.106694637962963,0.0
mp-19107,Li1Mn1O4V1,-2.372589790180624,0.0
mp-776015,Li2Ni1O8Ti3,-2.906432849761905,0.0
mp-5347,Al1F4K1,-3.6306720872916665,0.0
mp-625445,H2O4S1,-1.5012961385714283,0.0
mp-4871,Er1O14P5,-2.8331325722083323,0.0
mp-764905,F8Li2Mn3,-2.9897330746507524,0.021743724615368238
mp-760332,F8O5Sb6,-2.2144324370394735,0.06870442759870493
mp-10246,Na2Pt1S2,-1.0613380428706898,0.0
mp-30940,Cd2O7Te2,-1.5079511650757569,0.0
mp-18734,Ho1O4V1,-3.2982914966666663,0.0
mp-28946,Bi3F6N1,-2.20602404475,0.031173889511997642
mp-775939,N1Nb2O5Y1,-2.9471316419907407,0.05965389583298691
mp-581963,Hf3K4Te17,-0.9355179075972219,0.0
mp-18800,Cr2O4Si1,-2.507893317857143,0.03132141071512657
mp-676723,Li2O4S1,-2.20106475845238,0.0
mp-715584,Mo1O3,-1.9229003503124993,0.0
mp-557632,B1K2Li1O3,-2.341171449214285,0.0
mp-603327,H3N1O3S1,-1.1710035164843742,0.01644768700244903
mp-768863,As1O4Pr1,-2.7925847975,0.0
mp-600028,O2Si1,-3.0235014906944446,0.0
mp-24199,F2H1Li1,-2.540591888333333,0.0
mp-772087,Er3O12Sb5,-2.4813379652500003,0.0
mp-29990,B2La3N5,-1.6258211200000006,0.0
mp-12669,Dy2O2S1,-3.5653011135625006,0.0
mp-15219,Cu1Rb2S4V1,-1.2805372409375,0.0
mp-28217,P1S3Tl2,-0.6539439947916664,0.0
mp-21533,Cu1O7P2Pb1,-2.244418223446969,0.0
mp-541298,F5H2Hf1K1O1,-3.1155559811750004,0.0
mp-775909,O2Zr1,-3.7247470433333327,0.0
mp-754835,Cu1Na6O4,-1.3197259558463947,0.0801770466287886
mp-7277,Ge1S3Tl2,-0.49633471723958184,0.0
mp-3642,Cu1O2Sc1,-2.725512753125,0.0
mp-775911,La2N2Nb2O5,-2.840066904431818,0.04670438470360206
mp-555232,Li1O20P3U4,-3.2263732673129235,0.0
mp-777875,F4Fe1Li1,-2.818033825138889,0.002276242685136154
mp-28959,Cl2O3Si2,-2.6968505776785716,0.02624093267859909
mp-765618,F5Mn6O7,-2.233738836254789,0.045092439513881054
mp-649253,Cl1F8Nb1,-2.151114233749999,0.0
mp-771091,Cr2Li2O7,-1.8257519242424252,0.011075124886345251
mp-14649,Ge2O7Tb2,-2.8776270490909095,0.0
mp-6016,Al1Ge2Nd1O7,-2.8607619973863634,0.0
mp-18619,Ge2Na2Se5,-0.8558254360530407,0.0
mp-23292,Br2Hg1,-0.828770249166671,0.0
mp-27525,F6K3Tl1,-2.706536282758335,0.0
mp-561013,Ga2O4Pb1,-1.8516518707142862,0.0
mp-23096,Cl1Lu1O3Se1,-2.497649714835069,0.0
mp-755072,Na2O1,-1.4024923139511494,0.0
mp-777475,F6Fe1Li3,-2.9598941240000003,0.0
mp-776733,F6Li3V1,-3.16847172425,0.0
mp-571242,Cl4Co1Rb2,-1.7635412332142855,0.0
mp-766313,Ba1Ca2I6,-1.9173276425925925,0.029028926944444047
mp-643022,H5Pd1Rb3,-0.33440355208333333,0.007659367222221923
mp-707135,Al2O11Si4,-3.2857929921323517,0.032855528235291795
mp-764274,F3O1V1,-2.7030202712500007,0.0
mp-24407,Cd1H6O7P2,-1.6342702555803568,0.021416359270834517
mp-765749,F5Ni3O1,-1.994308924444444,0.06641699495370229
mp-677437,Na3O12P1Si2Zr2,-3.131290308649426,0.0
mp-707811,F5H6N1O1Zr1,-2.178549307410715,0.0
mp-22898,I1K1,-1.7057978114999996,0.0
mp-756361,O1Se1Zr1,-2.6936040178645833,0.03624691500166103
mp-768731,B1Bi1Li2O4,-2.227695569479166,0.06414853249969754
mp-753974,Cr1Li8S6,-1.352727666694445,0.042666976380951384
mp-765640,O47Sm3Ta17,-3.2189050211890518,0.0
mp-5800,Ga5O12Sm3,-2.801337633125,0.0
mp-10814,B1Li1O3Sr1,-2.997120714583333,0.0
mp-766925,F5Li1V1,-3.0823861933333334,0.001775361071415103
mp-551092,K1Li1O2Zn1,-1.807831632116666,0.0
mp-754038,I1O1Y1,-2.999640682499999,0.0
mp-768378,Ba2Br7Y1,-2.4736226687499996,0.0210035267500011
mp-470,Ge1O2,-1.8503387316666664,0.0
mp-768175,Dy2O2S1,-3.553258476562502,0.0
mp-19660,O7Sr2V2,-2.9125860467045457,0.0
mp-17921,F7Nb1O1Se1,-2.477903496656249,0.0
mp-677138,F1H1O3P1Rb1,-2.47031006029762,0.0
mp-28987,Na1Pt2Se3,-0.6850943249479163,0.0
mp-674804,Pb1Se4Sm2,-1.733988154910714,0.045227388214290495
mp-17085,F12O1Rb2Zr3,-3.8596549063194447,0.0
mp-755959,Li1Na1O1,-1.6381301290708805,0.07094279999999475
mp-27833,Cl6Te1Tl2,-0.8927826883333315,0.0
mp-5285,O4S1Sr1,-2.441939800052083,0.0
mp-28537,As2O4Pb1,-1.3612167989285706,0.0
mp-28913,C1Cl14Ti6,-2.0114026801190477,0.0
mp-546279,Br1O1Sc1,-3.0923845599999993,0.0
mp-2804,La1P2,-1.2607275307341272,0.0
mp-734394,Al1H4K1O9P2,-2.349811852259804,0.009917539853165302
mp-23934,H6N1O4P1,-1.4694239824702369,0.0
mp-11178,Ce1N2Sr1,-1.3719114479166672,0.0
mp-772813,Ca2Cu2O5,-2.070762700694445,0.0
mp-690708,F1H2K1Li1O4P1,-2.343765691272618,0.03871270074942394
mp-555272,F13Na5Zr2,-3.576124053262931,0.0
mp-3613,Er1Na1S2,-2.0997270632004312,0.0
mp-554863,K1Nb5O13,-3.002088771802632,0.01965437814318929
mp-772397,Li5N1O4W1,-1.945939024696969,0.05443634731219857
mp-763903,F11O1V3,-2.8975578797500003,0.010101849166684456
mp-2097,O1Sn1,-1.6303385493749998,0.0
mp-721624,Ca5H1O13P3,-3.2237497278977276,0.0
mp-17357,Na1O4Si1Sm1,-3.2938113487931027,0.0013902382144520078
mp-559824,Au2O10Se3,-0.9069058389687503,0.0
mp-764861,F7Li2Mn2,-2.8903562100026132,0.04124047909096811
mp-31245,O11Tb2Te4,-2.3013701163235414,0.0
mp-4551,Hf1O3Sr1,-3.693559708000001,0.0
mp-4643,Cu1Nb2O6,-2.5273589669444445,0.07470421208332054
mp-28230,S2Sb1Tl1,-0.5815914570833356,0.0
mp-5913,O7Pr2Si2,-3.4575209737121213,0.0
mp-2146,Ge1K1,-0.2126301760312499,0.0
mp-36234,Na1O2Tl1,-1.2263242137500008,0.0
mp-772788,Ba2Cu2O5,-1.92693133125,0.0
mp-662605,Na2O9Si4,-2.8110498437222216,0.05885883777770952
mp-733443,C1Ca7H4O23Si6,-3.0208978032926823,0.014875901463485814
mp-570193,Au1Cl4Na1,-1.2243152564798852,0.0
mp-557006,F3Na2O4S1Sb1,-2.2036971268465892,0.0
mp-16919,Hf1S5Y2,-2.1571819361328153,0.012287539791679958
mp-556721,Ba5Br1O15Re3,-2.7778847908854165,0.0
mp-558692,Cl1F11O2Sb2,-2.1641308535937496,0.0
mp-758026,Bi2Li4O13Si4,-2.641970225036232,0.08958509847828791
mp-4361,K4S11Ta2,-1.243195082274509,0.0
mp-766966,Cl5H2In1K2O1,-1.7524002012424236,0.0
mp-27788,Cl10P1Ta1,-1.1283734479424605,0.0
mp-772063,Ba1Cl5La1,-2.8334148844642866,0.06202267517857507
mp-20938,In5Rb1S8,-0.8667910359821401,0.0006025485714307166
mp-569085,Br3Li6N1,-1.2999676200000003,0.009862210124999039
mp-676516,Pb17Pr2Se20,-0.8532115396046953,0.015036598140988771
mp-7623,As4Mg1,-0.3048943550000004,0.0
mp-770414,Al1Li1O4V1,-2.802245966190476,0.03492819497596754
mp-772261,As1La1O4,-2.8430193491666658,0.0
mp-558129,K1Na1O5Si2,-2.9097684498113017,0.0007163948138134578
mp-755633,K5Se3,-1.2407568688671873,0.0307416997916643
mp-5213,Cd1P2Sn1,-0.08489588232142742,0.0
mp-626865,H2O5W1,-1.4891896853124988,0.08089907015625108
mp-531826,Li2O3Pt1,-1.6803392862499993,0.0
mp-22964,Cl1F1Pb1,-2.1444852475,0.0
mp-1522,Fe1S2,-0.8468357333333323,0.0
mp-722316,C2H5K1N3O4P1S1,-1.1483056379093137,0.05826702746130842
mp-775154,F4Li1Mn1,-2.8461998799329504,0.0
mp-19108,Ca2Mn1O6W1,-2.7775442822931034,0.0
mp-20006,F6Pb2Zn1,-2.557988876666668,0.020011257222203465
mp-2412,Li1P5,-0.19347719749999945,0.013031213214286685
mp-27300,Au1Br3Rb1,-1.056672611250002,0.0
mp-556587,Au1Cl7S1,-0.28585081586805455,0.0
mp-757853,Na4O12Ti5,-3.1030631072796937,0.0
mp-752419,Ca1I4Sr1,-1.8877270569444449,0.0
mp-767706,F7Li1V2,-3.141775461083333,0.011098651396364545
mp-764945,Co1Li1O4Si1,-2.347426797142856,0.04657210197674796
mp-18940,Mo1Ni1O6Sr2,-2.4777901949999985,0.0
mp-761390,Fe1O4Ta1,-2.501056802055556,0.0
mp-570727,C1Cl6N1Sb1,-0.7951381052777783,0.07576906600453685
mp-559537,Ca4O19P6,-3.0648922022536933,0.0
mp-764000,Co1F3Li3O1,-2.59232680875,0.0636321981251613
mp-675284,Lu2O5Ti1,-3.8017860051041668,0.0
mp-28813,C1Cl8Si3,-1.4186808935416668,0.06841691222222195
mp-615420,Cu1O10U3,-3.192161829642856,0.04119445785723386
mp-697948,Cs4H10Mg3,-0.3254675985953342,0.0
mp-546672,Bi2I1La1O4,-2.3210775450000005,0.0
mp-510076,Au5O2Rb7,-0.6722471184821391,0.0
mp-757967,Li1O24P7Sn4,-2.4162517703240747,0.08793907585534752
mp-5414,Na1S2Sb1,-0.7950349764062512,0.0
mp-756570,O3Rb4Sn1,-1.5217606543749995,0.0
mp-669376,F9K1U2,-3.7839785283749996,0.0
mp-29791,Nd4O7Pd1,-3.285169249687499,0.01810698822920583
mp-684018,B8O13Sr1,-2.938847978977272,0.0
mp-4405,Au1O1Rb3,-0.815154544,0.0
mp-29515,F3H2P1,-1.8493529943055556,0.0
mp-757042,Li1O4P1Sn1,-2.4099476334523806,0.005276800415974289
mp-5427,Mg2O7P2,-2.8088281537229434,0.0
mp-18690,F3Sm1,-4.237414769791667,0.0
mp-18125,Ag1Au1F4,-1.3853787928787882,0.0
mp-768510,Ba4O10Sn3,-2.6391075661764707,0.006244782058869489
mp-699473,B12H26Li2O7,-0.7373848416312048,0.05714597850475958
mp-23021,Br6K2Re1,-1.3918254963333325,0.0
mp-38802,Co1Ga2O4,-1.9363924075000014,0.0
mp-567666,Ba3Bi1N1,-0.8591129629999997,0.0
mp-764043,Li3Mn3Ni1O8,-1.1856607842528737,0.03366954806245227
mp-556631,F7K1Sn1Zr1,-3.44603715505,0.0
mp-1880,F3Sb1,-2.687607244374999,0.0
mp-675179,Ba3Bi2F12,-3.484033525882353,0.06624264666682975
mp-28341,Cl4Ga1Li1,-1.5304780740277775,0.0
mp-769321,O4Se1Zn1,-1.2620171112239575,0.0
mp-31289,Bi5N1O10,-1.5153894896875002,0.0
mp-561072,Dy1O6Sb1Sr2,-3.1102126786666666,0.0
mp-756505,Cs3O3Sc1,-2.1848988171428556,0.0
mp-762287,Li2O10V5,-2.4563399890686277,0.07072342313725495
mp-5614,B1Li3S3,-1.1867934801339288,0.0
mp-625501,H9Na1O5,-1.3199534766867818,0.0
mp-630329,O3Pb1Se1,-1.1382728783124976,0.0
mp-773044,Cu1Li1O2,-1.4265068589583327,0.0
mp-775804,Li3S3Sb1,-1.1104257449999995,0.00013465142857122764
mp-754266,Li8S6Ti1,-1.4916718903333328,0.0036665073333274735
mp-753911,As1Gd1O4,-2.56839508375,0.0
mp-766480,Cu1Li1S1,-0.8363095867361111,0.00457404319444817
mp-29423,Br4Fe1Tl1,-1.0822836363888904,0.0
mp-754352,Cu1Na3O2,-1.3379688470258617,0.0
mp-567652,Cl6Cs2Li1Y1,-2.4836745152643678,0.0
mp-6327,Al1Li1O4Si1,-3.203508129285715,0.0
mp-557857,Li2Nb2O7Sr1,-3.0123072815972214,0.010006953020868181
mp-752726,Ba1La2O4,-3.541657723571429,0.0
mp-775015,Cr3Li2Ni1O8,-1.9950788283333338,0.04201974048271647
mp-770639,O9W2Y2,-2.922923735064103,0.025385022692306008
mp-19009,Ni1O1,-1.1070889024999993,0.0
mp-17730,K2O3Sn1,-1.9614274724583336,0.0
mp-30997,F5Tl1Zr1,-3.4800653607142857,0.0
mp-30164,Cl5Cs1Sn2,-1.6656268253663797,0.0
mp-510075,Au5Cs7O2,-0.7072002159298033,0.0
mp-5621,Cu3Nb1S4,-0.6850053801562499,0.0
mp-571085,Bi1Ga2Se4,-0.6489731762499998,0.0
mp-555022,F1Lu1O3Se1,-2.8242352043489594,0.0
mp-698702,Ca1Mn1O6Sm1Sn1,-2.794839385293104,0.047062854416780195
mp-28559,Be8Na6O11,-2.545197396031034,0.0
mp-16557,Al1F5Sr1,-4.044213192916667,0.0
mp-1019509,B2O9S2,-1.7583455742788465,0.0
mp-5444,Ga5O12Y3,-2.9499201051250012,0.0
mp-4648,F5K1Te1,-2.565047903749999,0.0
mp-752537,Hf1O4Sr2,-3.4662752557142915,0.006370877500080395
mp-556364,Ca2Cl2O3Si1,-3.1886054559375,0.016106656565698874
mp-33338,Ga3Li1Te5,-0.6867046896296292,0.004244705259259302
mp-759743,F1O7Sb5,-1.8005537161538454,0.052667793124977234
mp-3416,Al1F6Na3,-3.4038867369999997,0.0
mp-696057,H13Li1Mg4Os2,-0.4415156639791668,0.0007980625000001851
mp-17407,Au3F8,-1.0912434327272742,0.0
mp-770663,B1Fe1Li2O4,-2.2904759294791655,0.02737687718741144
mp-559911,Br4S9V4,-0.9094510482536762,0.0
mp-758238,H1Na2O5P1Zn1,-2.255296484115148,0.0
mp-12496,Cd1Cs1Te3Tm1,-1.2728166782662835,0.0
mp-775493,Fe3Li2O8W1,-1.9440844517261908,0.024623474999988865
mp-556012,C1N1Na1S1,-0.514858472219828,0.0
mp-772408,Ba4O13Tm6,-3.6095241753804346,0.05150748060049367
mp-561457,Al1Cs1O4Si1,-3.185212919236453,0.0
mp-768020,Li2Mn1O4Si1,-2.6710912086997123,0.0
mp-29309,H6S1Si2,-0.28121208298611106,0.0011278943518524048
mp-733998,H12N1O12S2Tb1,-1.6280864970238085,0.01677684688967115
mp-27749,K2S7Sb4,-0.6402708804567396,0.0009646034615448193
mp-607829,Al1I4Tl1,-1.0064338213888888,0.0
mp-29403,Cu1Ga1I4,-0.7013818295833328,0.0
mp-721471,Cu1F1H4O5P1,-1.737552809965278,3.029791645422127e-05
mp-767699,F4Li1V1,-3.173601182638889,0.0
mp-15141,F11Na1Zn1Zr2,-3.638670999603448,0.0
mp-753979,O7P2Sn2,-2.3170503156168825,0.0
mp-775466,H1In1K2O11Si4,-2.807571015258772,0.0
mp-5475,N2Na1Ta1,-1.1392969412083325,0.0