Material ID,Compound,Energy,Hull Distance
mp-39123,Na3O12P1Si2Zr2,-3.1290914169390396,0.0
mp-759498,Li1O7P2Sb1,-2.427395103419913,0.016046324166819916
mp-776259,Hf2N2O1,-2.528534694250001,0.0
mp-771711,Co1Li4O8V3,-2.244552465208333,0.04167216140637997
mp-510569,Ce1Cs1Cu1S3,-1.6587234236925277,0.0
mp-768268,Co2Li14S9,-1.3090330869916664,0.07688300286667073
mp-696993,F2H2O5S1Sn2,-1.8813447918749997,0.013662171922691257
mp-23703,H1Li1,-0.48936213770833303,0.0
mp-755552,Li1S2Y1,-2.0235749990625003,0.0
mp-767114,O11P4Sn1,-2.452611609910714,0.0
mp-28273,Cu1K3O2,-1.2863722757083327,0.0
mp-756245,Ba1I5Y1,-1.7942395721428568,0.06748257089285735
mp-567781,B1Cl20Cs3Zr7,-2.2431001059019287,0.0
mp-4187,Ge2N2O1,-0.8170683655000005,0.0
mp-774361,F8Li2Mn3,-2.9979442329199837,0.021743724615368238
mp-625211,H3Li1O2,-1.533364842847222,0.0
mp-12010,Ba1O4Se1,-2.1570316824739577,0.0
mp-559109,Bi1Er1Ge1O5,-2.6654006609375003,0.0
mp-703517,H12Mg1Na1O11P1,-1.5640378433128865,0.07970843245072026
mp-11582,Ga1Li1Se2,-1.0635712093229177,0.0
mp-1345,Ca1P1,-1.2564584531547613,0.0
mp-29710,Hg4O7P2,-1.503681572380952,0.0
mp-1012551,Ba1Br1Cl1,-2.8171745749999992,0.0
mp-766123,Ce4O10Th1,-4.001055612166666,0.004341583999837913
mp-13133,K2O3Ti1,-2.65767151236111,0.0
mp-12365,Cu1K1S3Th1,-1.7230706578958344,0.0
mp-630376,Pb6S17Sb6,-0.6256481475215515,0.00635134448275859
mp-680395,As7Li3,-0.2908569679374999,9.0541062499927e-05
mp-776448,Ba1N1Nb3O7,-2.823864591458333,0.06439557708822068
mp-561514,B5Na1O9Sr1,-2.9461376045132894,0.0
mp-568606,Cl18Cs1Er1Ta6,-1.9122701801127326,0.0
mp-1016200,As2Ge1Mg1,-0.2684550625000002,0.019768562743055496
mp-29940,Cl1F10Sb1,-1.51614488375,0.0
mp-616458,C1Cs2O3,-1.8705131683333345,0.0
mp-760461,B1Lu1O3,-3.541300870083333,0.0
mp-555874,As1Li1S2,-0.7011549411979168,0.0
mp-28192,Au1Cl5S1,-0.6897671311607141,0.0
mp-555218,Ba4Br6O1,-2.7496596179545434,0.0
mp-32537,Ag2O7W2,-1.6493702872348488,0.028271530909082996
mp-766361,Nb2O5,-2.731550538285715,0.0
mp-22894,Ag1I1,-0.4947116558333331,0.0
mp-554577,Li4O7P2,-2.744413645096153,0.0
mp-21445,Ba3F2In2O5,-2.8394490098958323,0.02001952746984396
mp-557704,N1O3Tl1,-0.9805579875000003,0.0
mp-760477,B1O3Sm1,-3.428232335083333,0.0
mp-20731,Hg1In2Se4,-0.7247960920535712,0.0
mp-540714,H8N1Na1O6S1,-1.3829489255692196,0.005770909922239883
mp-5525,Al1K1O2,-2.9152806305937493,0.0
mp-15576,Dy3Ga5O12,-2.975978841999999,0.0
mp-3529,K3S4V1,-1.4150067645937505,0.0
mp-770399,Li6O7Ti2,-2.736178729611111,0.011646225333314438
mp-4471,Al1O3Sc1,-3.67038498325,0.028127523250066844
mp-763200,Li1O3V1,-2.3434127619166683,0.0
mp-16690,K2Nd1P2S7,-1.3226414569821412,0.0
mp-19293,F1Fe1O3Sr2,-2.8757889473214275,0.0032766223214853846
mp-29454,Na3O2Tl1,-1.2756140641666651,0.0
mp-559588,Br1Cd1S2Sb1,-0.8298143472500001,0.0134737129999996
mp-753692,Ge2Ho2O7,-3.0603321382954545,0.0
mp-22512,In2O5Sr2,-2.488915488564815,0.02931774416668631
mp-30304,Bi3O7Sb1,-1.7903686884091043,0.0
mp-545506,Gd1O1P1Zn1,-2.0285948980357142,0.0
mp-4900,Ba1Ce1O3,-3.4298283259999978,0.0
mp-11151,Na1Pr1Te2,-1.5890557797916678,0.0
mp-772591,Li2Mn2O7Si2,-2.683981379136825,0.03975919247840883
mp-41414,Ba1Bi1La1Mg1O6,-2.63005123575,0.09495741848400882
mp-1009129,Mg1O1,-2.6617465449999997,0.0
mp-770464,Bi1La1O4,-2.3258900433333323,0.058242607814764945
mp-14411,Ge1K4O4,-1.961495910777777,0.0
mp-762049,Cu2Li1O4P1,-1.8400150667708335,0.09721506593559304
mp-18099,Ba1F5Sb1,-3.3748035700000005,0.0
mp-756372,Mg1O2Rb2,-1.9043366235,0.0
mp-29000,B5Na3S9,-0.9792415731537365,0.0
mp-4200,O4P1Sc1,-3.1941540979960314,0.0
mp-570744,As4Si3,-0.04679298500000024,0.07167499827380931
mp-17279,O2Si1,-3.0254780460416675,0.0
mp-767404,As4Gd2O11,-2.1168751160293984,0.08970461529412976
mp-568588,Nd1Se2Tl1,-1.598576846406246,0.0
mp-18073,As4K7Ta1,-0.6303713252986114,0.0
mp-19063,Cr1Er1O3,-3.260021454666665,0.0
mp-756294,Li2O5Ti2,-3.1290821963425923,0.027627804814794307
mp-14368,As1O5Sb1,-1.418442954642856,0.0
mp-554410,Ba2La1O6Ru1,-2.77969250575,0.0
mp-21760,In2Rb2Sb3,-0.5005084416071425,0.0
mp-765639,O24Sm11Y5,-3.891778801458333,0.0047366235781268525
mp-33302,Al2Mg1O4,-3.354426043214285,0.0
mp-555509,Cu1Ge1Ho3S7,-1.715230194322917,0.0
mp-4598,O6Pt1Sr4,-2.6255373394696964,0.0
mp-29145,H3N1,-0.42268144625000037,0.0
mp-763901,Na1O3V1,-2.3301526057758624,0.0
mp-19313,Fe1O2Zn1,-1.6558329921428563,0.12370862999998855
mp-753960,H2Li2O5Se1,-1.6601938467760413,0.009596868083339061
mp-555548,Al1Mg1O5P1,-3.155280566822917,0.0
mp-10166,Al1Na1Se2,-1.2082201807812503,0.0
mp-756909,Ga1O3Tl1,-1.617654038416667,0.06982262312500857
mp-32688,Nd2Se3,-2.1910132336874995,0.0
mp-16560,Cu1Er2K1Se4,-1.7281393940468748,0.0
mp-1008524,Be1Se1,-0.530352283671875,0.0
mp-568121,Mn4Si7,-0.3876060799294679,0.0
mp-3009,Be1F4Rb2,-3.3104188860714285,0.0
mp-625367,H1Lu1O2,-2.965721311354166,0.008872934479207562
mp-7045,Gd1Rb1S2,-2.100578569218751,0.0
mp-720985,Ca1Cl1Er15O28Se11Si8,-3.1970458490747067,0.03868245837862805
mp-558632,K1Na1O4S1,-2.230654330382389,0.014228915535456719
mp-558314,Bi4Cl1O8Ta1,-2.0717549535714275,0.0
mp-17101,Ca1Nb2O6,-3.0188832797222225,0.0
mp-1009082,As2Mg1Sn1,-0.31180010499999966,0.0
mp-766330,Ba6Ca1I14,-1.9850079280952377,0.06548554928571397
mp-19093,Ba2Ni1O6U1,-3.0852187562499993,0.0
mp-6252,Cu1O6Sr2Te1,-2.209149022166666,0.0368088075000216
mp-677283,Al3Nb2Nd1O15Sr4,-3.4075485564000005,0.00881753899972125
mp-18217,Al1K3Se3,-1.3956503194196423,0.0
mp-756040,Gd2Hg1O4,-2.8205258989285733,0.0
mp-530800,Er2O5Ti1,-3.677453691354149,0.0
mp-769589,Cr1Li1O8V3,-2.3739049929487184,0.08935798772419955
mp-15988,Cu1Li2Sb1,-0.48556522833333204,0.0001610358291904701
mp-773953,Ba2Cl7La1,-2.8397397667500006,0.01170147574999767
mp-2654,Al2S3,-1.2356055890208324,0.0
mp-561710,Cs1S3Sn1,-0.8407425366875003,0.0
mp-28695,H3K1Si1,-0.2366190746000001,0.0
mp-770405,Ba1Br5La1,-2.477475478571429,0.04473739571428936
mp-554282,B5Lu3O12,-3.3808005195416664,0.0010663161562362688
mp-19281,Cr1La1O3,-3.194041714,0.0
mp-708961,Be1H8O8Se1,-1.463884854435763,0.0
mp-561382,Bi4Br1Nb1O8,-2.0365416124999993,0.0
mp-754055,Cs1Er1O2,-2.946145677083333,0.0
mp-19111,Na1O5V2,-2.392061722537716,0.005253365625006445
mp-14985,F7K1Pd1Zr1,-3.0811858172916815,0.011452633984738725
mp-771958,Ba3Cl9La1,-2.8532195275,0.018954979423079103
mp-504371,Li1Ni6O24P7,-2.2762794963377186,0.013557052763300553
mp-540033,Li1Mn1O7P2,-2.5341890733346393,0.0
mp-752793,Ag1F3Li2,-2.4201463759722217,0.019543975555609272
mp-27331,Ge1K3Te3,-0.9750834466785696,0.0
mp-556275,Al2O7Rb2Sb2,-2.528481350480769,0.0
mp-6699,Mg1Na1O4P1,-2.87586462343596,0.0
mp-574651,Cs1Mn1Se3Sm1,-1.5663380613155529,0.0
mp-757490,Li1O4P1Sn1,-2.392072142568026,0.005276800415974289
mp-558302,Bi5Br1O7,-1.650121294711538,0.010980821923043256
mp-568060,Ge2Na4Te5,-0.7740739747309294,0.0
mp-567471,Hg1I2,-0.5978085477083344,0.0
mp-680486,C1Cl16W6,-1.1920790367391305,0.020598281231885375
mp-754323,Bi1O3Tm1,-2.8432071245,0.029945425874950617
mp-18685,Cu2Ge1S4Sr1,-1.043854825104167,0.0
mp-30099,Cl1Pd1S1,-0.754733939097222,0.0
mp-7624,Er2O7Si2,-3.563672002424242,0.0
mp-559766,Cs3F4Li1,-2.918249122083335,0.013073766249994012
mp-755573,Cs2O1,-1.0981625398706891,0.0
mp-6078,Cd3Na2O10Si3,-2.492097916144636,0.0
mp-28810,C1Na2S3,-0.7155369112931028,0.0934942157702765
mp-774336,Bi1Li3S3,-1.111024378125,0.02562093928572016
mp-756251,Ba2Cl7La1,-2.8835789730000005,0.01170147574999767
mp-3297,Li10O9Zn4,-1.9924172666123188,0.0
mp-17805,Ba2F2Se3Sn1,-2.4268143349414055,0.0
mp-24065,B2Ca1H10O9,-1.8622509971401513,0.007717035681686791
mp-27333,Cl5Co1Tl3,-1.2258536766666692,0.0
mp-25433,O2Ti1,-3.169418392222223,0.0
mp-27370,Au7I1P10,-0.14773050240740718,0.0
mp-555123,F3K1Mn1,-3.0191048296862064,0.0
mp-560240,K2O6P1Sb1,-2.3952802999142846,0.0
mp-29273,Ca2Ge7O16,-2.3719029741999997,0.0
mp-753940,K1Li1Mn1S2,-1.2355681201028736,0.0
mp-707324,H6N3P1S1,-0.5158634282007571,0.0
mp-27195,Bi2In4S9,-0.6404714546875009,0.005179040000000275
mp-11114,Cu1K1Pd1Se5,-0.715435133621094,0.0
mp-762511,C2Fe2Li1O7,-1.7847835082986105,0.05331086102679657
mp-5512,Al14O25Sr4,-3.458645105639535,0.002244167848763096
mp-13064,Dy2O3,-3.94852765125,0.0
mp-574684,As2Na2Sn1,-0.3385656310517241,0.0
mp-33537,Fe2Mo1O4,-1.668516619285713,0.02410562499999434
mp-705116,Mn1Mo1O6Sr2,-2.6438199593764367,0.0
mp-764593,F7Fe3Li3O1,-2.634382313928571,0.04271103928572068
mp-557411,F6K1Rb2V1,-3.140636049125001,0.0
mp-1019803,Al9K1O14,-3.3560807616874997,0.009166219598972347
mp-19399,Cr2O3,-2.41254414,0.0
mp-29654,B9H11,-0.18900603437499938,0.0
mp-720376,H4O5Se1,-0.8635514401562496,0.0
mp-38684,Cl4Li2Mg1,-2.1811473552380947,0.006698627142856343
mp-29890,Au1F11Th2,-3.5069992955357128,0.0
mp-557743,Al2Ca1F9K1,-3.862010747858975,0.0
mp-15236,Cr1Sb1Se3,-0.5766276999375008,0.0
mp-1190,Se1Zn1,-0.9515610311718761,0.0
mp-541283,Br4Ga1In1,-1.2421970673611105,0.0
mp-771914,Ba3Cl12La2,-2.879341441470588,0.0413727344117652
mp-771580,Fe3Li4O8Te1,-1.7533111637499994,0.07119207039742004
mp-3446,O4Sr1Tm2,-3.8085939607142847,0.0
mp-765090,F3Li1Mn1,-2.9482199617528737,0.018346049749996853
mp-582723,Al1As2Cs3,-0.48682724375718384,0.0
mp-6126,B1Cd1Li1O3,-2.3018489975,0.0
mp-5606,Al1F4Tl1,-3.2491158999999996,0.0
mp-1019583,Al2Ca1O6Si1,-3.39655977225,0.01644746545951037
mp-581857,Bi1F4K1,-2.862747604666667,0.04113639875036412
mp-557059,Rb1S4Sn1,-0.9101220046875002,0.0
mp-3267,S8Sb5Tl1,-0.5570096791666665,0.004049258571429222
mp-770370,B1O6V3,-2.620933642416665,0.0071454558748676785
mp-697726,Co1Li2O7P2,-2.491853284871031,0.013520971428562826
mp-768241,Dy2Ge2O7,-2.8686441859090905,0.0
mp-758632,C2H2N3Na1O1,-0.6500672879964887,0.06909763260286558
mp-756297,In2O4Zn1,-1.909316315714285,0.029411925714288602
mp-776630,O3V2,-2.4713220365,0.0
mp-669476,Ba2Cl7Sc1,-2.7846152330000002,0.02575778624999714
mp-690866,Li1Mn1O4P1,-2.581617070129603,0.0
mp-29020,O6P4Se1,-1.5869242287437764,0.0805946617922111
mp-23574,Cl8O1P1Sb1,-1.3768466304166667,0.0
mp-649453,B1C1Ca3Cl2N1,-1.5520952914583326,0.0
mp-761765,Li3Mn3O8Si1,-2.324002689252873,0.09294774222890159
mp-554781,Cu1S7Sn1Tb3,-1.7138035897395838,0.0049649865623102585
mp-570961,Bi1Cd1I1Se2,-0.7375020879374979,0.042557479666666606
mp-697764,Fe1Li1O7P2,-2.5056195398863634,0.0
mp-562137,C1K1Li1O3,-2.193889720847223,0.0
mp-754079,As1Gd1O4,-2.7621294499999998,0.0
mp-754455,O3Sc2,-3.8831755992499994,0.0
mp-705424,Fe17O18,-1.4718435124285707,0.023397005857139722
mp-601292,H1O10P3Pr1Rb1,-2.8046828715625,0.0
mp-16684,Cu1Pr1S2,-1.5929687568229163,0.0
mp-556084,Cl1K1O3,-1.14617280445,0.0206739431249904
mp-17986,O3Ti1Tl2,-2.0791427611111146,0.0
mp-582753,Te1Tl2,-0.44087916232323227,0.0
mp-3472,O4Pb1S1,-1.9107944084375,0.0
mp-42022,Cs2F5O1Rb1Zr1,-3.361659260681035,0.007388931249133179
mp-19387,Cd1O4W1,-1.9829760133333305,0.0
mp-1479,B1P1,-0.40748766124999936,0.0
mp-570125,Br3Hg2Te1,-0.7762885906944442,0.004803563442459913
mp-7457,F2Sn1,-2.3716873508333336,0.0
mp-30284,As1Hg1O3,-1.0746511730000008,0.0
mp-27275,B1Li3O3,-2.5535980645238086,0.0
mp-552934,Ba2Br1Cu1O2,-2.3784312558333327,0.0
mp-1020107,Al3Ca1Li1N4,-1.3482356650925926,0.012822346666754846
mp-20244,Pb1S3Zr1,-1.3425937221874988,0.0029084075000001875
mp-7588,Cd1Ge1O3,-1.8496252891250002,0.0013674918333300922
mp-626726,Ba1H4O3,-1.7712484546875018,0.0
mp-759455,Li1O7P2Sb1,-2.456900842510822,0.016046324166819916
mp-19957,B1Ge1La1O5,-3.004672504947917,0.0
mp-27528,As2Cd4I3,-0.48179171124999937,0.006281844652777874
mp-23098,Cl1F5N1Re1,-1.9354558659375005,0.02557341157766513
mp-569675,Cl8Hg2Pd1Tl2,-1.100102455512823,0.0
mp-632760,H6Na2O6Pt1,-1.3766119810172408,0.0
mp-29411,B2Na2S5,-0.9754038774513086,0.0
mp-754578,Ga1O3Tm1,-3.161020719583333,0.006695785850001812
mp-23140,Ag1Hg1I1S1,-0.44342399244791686,0.0
mp-720817,As1H15Mg1O11,-1.4634949958482142,0.010696674420034111
mp-775175,Fe1Li1O4V1,-2.17583390047619,0.010418793631147696
mp-768615,Cl12La2Sr3,-2.68698118,0.04093196294117513
mp-569193,Cs4P2Se9,-0.970384858933348,0.0
mp-626528,H1Nb1O3,-2.4602822167499996,0.06094676137500876
mp-28707,Nb5O14Pr1,-3.1516429866249993,0.05186152762499283
mp-649950,Br2C3O3Ru1,-1.060238895416667,0.057954939328704214
mp-555791,O2Si1,-3.227389617569445,0.0
mp-22566,In1S2Tl1,-0.7744173206250013,0.0
mp-654139,Nd2O11Ti4,-3.656153564387254,0.0
mp-22634,K4O12Sr1U3,-3.2537633009499984,0.0
mp-4675,Na1O3Ta1,-3.0648063105603454,0.0
mp-625151,Cl1H7O3,-1.221346491477272,0.0
mp-764052,F1O1V1,-2.800795195833333,0.0
mp-703459,H2O1,-1.0526603761111102,0.0
mp-559598,F4Li1Sc1,-3.8439861199074064,0.03367285333332445
mp-559613,K6O9Se2,-1.7206837940110309,0.0
mp-560578,F4N1O3Rb1Te1,-1.9646880505416668,0.0
mp-28326,Br4Ga1Li1,-1.31876056527778,0.0
mp-773325,Li2O8V3,-2.3996682683974364,0.04126299403846408
mp-22857,Cl2Cr1,-1.1969118472222213,0.06207181981481469
mp-554229,As3Cs1O8,-1.7724698589942527,0.0
mp-554539,Ca6H2O13Si3,-3.0450217998958258,0.01097559614584398
mp-15954,As2Rh1,-0.5725928316666659,0.0
mp-761185,F1H3K1O4P1,-2.140468056883333,0.0
mp-558430,B2Ba1F8,-3.5443427343939367,0.0
mp-644325,Cs1Fe1O4Si1,-2.508371735775861,0.0
mp-19255,Fe2O5Ti1,-2.3102283602604157,0.023560669687868963
mp-541735,K4S14Ti3,-1.3256928585238086,0.0
mp-29055,K1Sb2,-0.4273431559999998,0.0
mp-505721,Rb3S4V1,-1.4252510015624997,0.0
mp-28778,F4K1Sc1,-3.915123863,0.0
mp-672695,Ag1C1K1O3,-1.5822746744027771,0.0
mp-16403,Hg1P14Sn1,-0.020491551041665446,0.0
mp-754414,O4Sm2Sr1,-3.6123335420238094,0.02043617839284703
mp-28219,Br3Cd1Tl1,-1.1089174415000003,0.0008657449999995848
mp-7657,K3Si1Te3,-0.9843654023214299,0.0
mp-676467,Al2F3Na3O8P2,-3.0647903314402023,0.0
mp-17468,O7Si2Sr1Zr1,-3.3757690622727266,0.001088540303033302
mp-761704,Bi4F2O5,-1.9244314330681822,0.055780596818172316
mp-554493,As1Bi1O5Pb1,-1.7305032729687504,0.0005494474404712513
mp-558487,Gd1O14P5,-2.815442949708333,0.0
mp-645299,Cs2Mo2O11,-1.2126518051408046,0.38459090736296225
mp-607467,Ca1Mo1O3,-2.616796105999999,0.0
mp-684090,Li1O7P2Sb1,-2.4710575546590907,0.016046324166819916
mp-555521,O2Si1,-3.2581622695833334,0.0
mp-28903,Cl14Fe1Zr6,-1.884871898333334,0.0
mp-753699,Bi4F2O5,-1.891557697159091,0.055780596818172316
mp-706986,H4N1O3P1,-1.5151802363425928,0.0
mp-764754,F3Li1O5V3,-2.681746183194443,0.04378889904605169
mp-24004,H1O5P1Zn2,-1.9080246049140233,0.0014052829866623522
mp-555147,O2Si1,-2.9644088083333338,0.0
mp-769802,Ba2O16Zr7,-3.717851222799999,0.027502054599975168
mp-755252,Dy1H1O2,-2.9139758481249993,0.0013657565625195822
mp-705555,Fe10O11,-1.491624208630951,0.02566975880952241
mp-18899,Mn1Nd2Ni1O6,-2.7804042532931037,0.0
mp-774242,Li1O6Ta1W1,-2.621673945074074,0.04773140138853746
mp-23110,Hg2I1Na1O2,-1.011253575675287,0.0
mp-28641,B2O5Th1,-3.206585542812501,0.0
mp-556932,O3P1Tl1,-2.0048846710952413,0.0
mp-23399,Ag1I3Rb2,-1.3362848391666635,0.0
mp-13995,Ge1Hg2O4,-0.9956066014285706,0.0
mp-1019572,Al2Ca1O6Si1,-3.40877183975,0.01644746545951037
mp-13829,Cu3S2Tl1,-0.3768608363888906,0.0
mp-37995,O8Ti3Zn2,-2.888363469230768,0.0
mp-6586,Al1F6K2Na1,-3.450886347755173,0.0
mp-754745,Na2O3Sn1,-2.072190226558908,0.0
mp-761254,Cu1Li5O11P3,-2.503566216404761,0.06610784650031717
mp-559360,O2Si1,-3.258521584305555,0.0
mp-19267,Ba1Mn1O3,-2.594941631896552,0.0
mp-19147,C1Ni1O3,-1.6521011049999927,0.0
mp-1019743,B1Ga3N4,-0.6322928409375006,0.22320331437500007
mp-643643,Ba1C1Cl1H2N1O1S1,-1.3414906449218753,0.09085827835578697
mp-772188,Dy1Er1O3,-3.8786527608749966,0.0845144187082468
mp-10533,Cu1S2Y1,-1.590968853906249,0.0
mp-704544,O7Th1V2,-2.9125739117500005,0.020686443375025475
mp-35929,Li1Mn1O2,-2.0983099409410926,0.0
mp-775817,Li5S4Sb1,-1.203309263416667,0.051351565499990134
mp-644494,H4Pd1Rb2,-0.3430485260714278,0.0
mp-29405,I3Rb1Sn1,-1.1826493635,0.0
mp-6514,La1Na1O4Ti1,-3.3755840942692936,0.009016206250755943
mp-11520,Ni1Sb1Y1,-0.949398749999998,0.0
mp-581419,Cu3K3Nb2S8,-1.1960216222968754,0.0
mp-1009086,Be1P2Sn1,-0.21871151291666724,0.022103706409523388
mp-559814,I2Li5S3Sb1,-1.280002325151515,0.0
mp-631631,Mn5O16Pb3V2,-2.0134008934482757,0.0031912095954848606
mp-559871,Al1F3,-3.8569159247916662,0.0
mp-5732,La2O7Si2,-3.5198595156818184,0.0
mp-557757,Al1O4P1,-3.106138650833333,0.0
mp-554964,B1O17P2Pr7,-3.4219182026895925,0.0
mp-17487,Er1Ge1Na1O4,-2.738819610476191,0.0
mp-3187,Ba1Ce1O3,-3.5913722722500006,0.0
mp-579556,Cs1Ho1Te3Zn1,-1.304367807155172,0.0
mp-24390,Ca1H1O4P1,-2.801272522261904,0.0
mp-15733,Al1Ca1O5Ta1,-3.4813933537291666,0.0
mp-505270,O5S1Ti1,-2.2361934470684526,0.0
mp-685935,Cd1Ge1O3,-1.7697488512500001,0.0013674918333300922
mp-11585,Ge1La2Mg1O6,-3.25929712275,0.016045992030529987
mp-557257,F3K1V1,-3.0708366792499993,0.0
mp-18305,As1Rb3Se4,-1.0551996005468736,0.0
mp-735543,H6Mn1O6S1,-1.4395363072182892,0.032453529352732345
mp-680322,Bi17O43P5Pb5,-1.9575320067959183,0.027184706071303466
mp-1819,O2Sb1,-1.5575516733333334,0.0
mp-569507,Se2Tb1Tl1,-1.6180324311718666,0.0
mp-770899,Li2O8V3,-2.359143462051283,0.04126299403846408
mp-22889,Cl2Zn1,-1.2903439583333345,0.0
mp-586092,Fe5Li3O8,-1.7789356484374999,0.04119336562500253
mp-17785,Ga1K1Na2O3,-1.9356779146219207,0.0
mp-554115,S1Zn1,-0.9618576197395837,0.0
mp-4941,O4Sn1Sr2,-2.649016004285715,0.0
mp-4406,Ca1O4S1,-2.665906946249997,0.0
mp-625632,Br1H9O4,-1.1744342503571426,0.0
mp-569707,Bi1Br1Se1,-0.9280288641145832,0.00863973083333273
mp-6325,Ba3Mg1O9Ta2,-3.4170399765833346,0.0
mp-626800,H3O5Re1,-1.6345723226388884,0.0
mp-755867,Lu2O7Sb2,-2.788000380568181,0.08714411493181728
mp-754555,Ho1O2Tl1,-2.729476815208333,0.09850613906310457
mp-15796,Ho1Li1Se2,-1.9625500099479147,0.0
mp-27263,Br4Mn1Rb2,-1.7101355061330052,0.016779219761901793
mp-767070,La5Li1O24Ti8,-3.6236228614473687,0.026505432181511572
mp-757076,O7P2Sn1,-2.5211589799285705,0.0
mp-755486,Na2O3Sn1,-2.0552977786422417,0.0
mp-643001,H6Na4Ru1,-0.35453526340909103,0.0
mp-560597,Na8O18Si6Sn1,-2.7600177189367825,0.0
mp-555840,K2O4P1,-2.3359813370476195,0.09790828205381022
mp-31235,Ba1Bi1Na1,-0.772062262681991,0.0
mp-380,Se1Zn1,-0.9463589361718747,0.0
mp-12431,Ba1Be1F4,-3.930721935,0.0
mp-705380,Li1Mo2O13P3,-2.3950948115664166,0.044436523422722994
mp-553874,Ag5Ba2La1S6,-1.274724471934523,0.0
mp-752434,Gd3O6Y1,-3.7770834083124982,0.01818162725000221
mp-755317,O6Te1Y2,-2.828643986296297,0.0
mp-767414,C1Ho1K2O7P1,-2.7852927386785704,0.02380870249908777
mp-777744,Ba2F7Y1,-4.289583206916666,0.0024822139998015302
mp-15736,Al1F1O4Sr3,-3.418284405833333,0.011106600856728162
mp-567556,Br2Cd1Sb2Se3,-0.8210480308789068,0.0
mp-554532,Cl1F5K2Te1,-2.6281285965185184,0.0
mp-557604,Al1O4P1,-3.111906245,0.0
mp-571056,Cs1Sn1,-0.3076297395905172,0.0
mp-23330,Cl1Na1O3,-1.083627405060345,0.0054357139999932965
mp-760419,Bi1F5Li2,-2.932792783645834,0.06301933437505625
mp-707645,B5Ca3Cl1H2Na2O18S2,-2.640938150232933,0.0014472670622876476
mp-772724,B1O3Sn1,-2.2745305555833335,0.09083917337501149
mp-770936,Ba2O5Sc2,-3.3745240775000016,0.0
mp-18420,Cr1Er3S6,-2.0190366717499986,0.007456823249965083
mp-19027,Co1Na5O2S1,-1.2859307231537354,0.012541728611220333
mp-40502,Co1Cs1F5O1Ti1,-3.11611272366539,0.0
mp-4752,Al3F14Na5,-3.518830026818181,0.0
mp-1009819,O1Sr1,-2.662348122708333,0.0
mp-28782,Na3P1S4,-1.1277847594360635,0.0
mp-556117,F19Ga3Pb5,-2.8159366046296292,0.0
mp-770816,Dy2O5Ti1,-3.7794945514583347,0.0
mp-3700,F4Li1Y1,-4.040134309166667,0.0
mp-556740,B1Na1O4Si1,-2.914160079547072,0.0
mp-14892,Fe2Rb9Se7,-0.9441972156336804,0.0
mp-7725,Na2O4U1,-2.959555594679802,0.0
mp-559740,O2Si1,-2.987219107500001,0.0
mp-697761,Mn1O4P1,-2.312469401044062,0.0
mp-19320,Fe1K2O4,-1.4263939256428553,0.0
mp-757203,H4Na1O8P1S1,-1.891666350534003,0.0005178826615863367
mp-556262,O2Si1,-3.027001108541667,0.0
mp-626000,H1Na1O1,-1.4581364345833336,0.0
mp-669466,Ag1N1O3,-0.6788302325833335,0.0
mp-753690,Br1H3Li4O3,-1.815893037234848,0.0
mp-559897,F3O2Os1,-1.8330513254166665,0.01980220739580159
mp-777002,Cr3Li4O16V5,-2.4453634372619057,0.023193756354935147
mp-560029,Br1O4Y3,-3.6752509962500017,0.0
mp-768372,Br1O1Sb1,-1.183572091111112,0.0
mp-773040,As5Pb3S10,-0.4614223839583336,0.03063003611111132
mp-1950,S2Sr1,-1.7165316076388895,0.010899529999999954
mp-775975,La2N2Nb2O5,-2.8369060861363637,0.04670438470360206