Material ID,Compound,Energy,Hull Distance
mp-541430,Ba1Cu1La1Se3,-1.8569381199218746,0.0
mp-768469,Ga1O3Tm1,-3.090249677666668,0.006695785850001812
mp-28974,F4Ti1,-3.6880844846666663,0.0
mp-505364,Cd1H6N1O5P1,-1.492427840863096,0.005638902668079838
mp-30216,I6K2Re1,-0.9269345096666667,0.045117636481481246
mp-532059,Cd1Er2S4,-1.913803350999998,0.0
mp-685097,Hf1O2,-3.9920379508333332,0.0
mp-23058,Cl1Nd1O1,-3.379554193333334,0.0
mp-776362,N2O1Zr2,-2.443855906499999,0.0
mp-19517,K1O5P1V1,-2.5852242089166664,0.0
mp-559571,B2O5Zr1,-3.1937698843229168,0.0
mp-29331,F4H3K1,-2.189634457625,0.0
mp-650124,K2Rb2Re6S13,-1.0453566744184781,0.0029259163949277274
mp-14026,Ca2O7Ta2,-3.485066638295454,0.0
mp-777665,F4Fe1Li2,-2.845874740595238,0.013517847857180243
mp-558475,K4Nb2O1S10,-1.3643097761176455,0.0028257318102647257
mp-24413,Al1H6Li1Na2,-0.32209981514367814,0.0
mp-698317,C3H4Nd1O8,-1.8413462177343751,0.0
mp-675511,Pb1S4Sm2,-1.8716543807142851,0.04230206142858682
mp-568031,Cl4Ga1Hg2Sb1,-1.0832764779687496,0.0
mp-542812,Ga1Te1,-0.5716676937499999,0.0
mp-20526,Pb1S1,-0.7260659290625,0.0
mp-558192,Na1O3P1,-2.6350885928711016,0.0
mp-38975,N1O1P1,-1.439333314603175,0.0
mp-541141,Cl6Ir1K3,-1.7570434726499993,0.0
mp-764872,F13Fe7Li5O3,-2.5056440436309524,0.04863316053569936
mp-622195,Cs1F1O3S1,-2.2635299645510067,0.0
mp-1020057,La1Li1O2,-3.1703738514583337,0.016473926249919835
mp-626647,H1O1Tl1,-0.8337346883333344,0.032461184792168606
mp-13002,F6K2Si1,-3.4271002634444443,0.0
mp-559377,F3I1O1,-1.3240634499999984,0.0
mp-4026,Cr1K1S2,-1.1871601373125005,0.0
mp-14017,K3Sb1,-0.5482814765625008,0.0
mp-26745,Li1O7P2Sb1,-2.4739947141017313,0.016046324166819916
mp-29186,La1P3Si1,-0.4489165147222217,0.0
mp-569149,Cl6K2Te1,-1.6463073014074072,0.0
mp-770481,O25P1Ta9,-3.0554836539707497,0.0
mp-28364,Cd1O2Rb2,-1.250376295000001,0.0
mp-560278,B5Er3O12,-3.3625554807916656,0.01854473720832317
mp-554540,Li5O6Re1,-2.305934516736111,0.0
mp-19046,K1Mn1O4,-1.450861025446839,0.0036691572396184333
mp-504669,Bi1F6K1,-2.3409660198437496,0.0
mp-5214,O8Te3Ti1,-1.9978514969444436,0.0
mp-19022,Fe1Na4O4,-1.6237541567241385,0.0
mp-31031,La4O7Pd1,-3.229042622760408,0.025255998749845077
mp-4425,Pt3Se8Ta2,-0.9231803125705118,0.0
mp-7191,Ga1N3Sr3,-0.7891176024999993,0.0
mp-555079,S1Zn1,-0.9622020526562503,0.0
mp-23209,Cl2Sr1,-2.750093178333335,0.0
mp-17747,Cu1S7Sn1Y3,-1.7051674330729167,0.01228219979154114
mp-640341,Cl4Mo3S7,-1.138209747455358,0.0
mp-560976,F3K1Ni1,-2.6417304601,0.0
mp-3078,As2Cd1Si1,-0.19773173999999827,0.0
mp-556091,Cs3S11Ta2,-1.0287663561315092,0.0
mp-14206,Ag3As2K3,-0.44563236140624873,0.0
mp-17400,Ba2N3Ta1,-1.28499772726389,0.0
mp-777700,F4Fe1Li1,-2.763063663888889,0.002276242685136154
mp-667363,Al1O4P1,-3.103368152579365,0.0
mp-10931,F1Ho1S1,-3.3336322351041665,0.0
mp-556647,Ba5Cl1O15Re3,-2.7884596414583336,0.0
mp-30251,Au1O2Y1,-2.5758098772916664,0.0030365556251825687
mp-769171,Ge1O3Si1,-2.4781594461250003,0.10606156674999526
mp-1016873,Ca1Hf1O3,-3.572513073000002,0.0
mp-644492,Lu1Nb1O4,-3.579383443611112,0.0
mp-23713,Ca1H2,-0.6740188433333335,0.0
mp-10733,O3Sm2,-3.741332215,0.0
mp-699445,H2K2O7P2,-2.3333712342655666,0.031271304614969554
mp-504570,Fe1K3O3,-1.6442615200357145,0.0
mp-560937,F1Na3O9Si3Sn1,-2.8546851294650093,0.0
mp-613620,O3Rh2,-0.9173541322500001,0.025009798999999156
mp-570817,Cu2I2P8Se3,-0.2857220061116067,0.0
mp-571544,K1P1Se5Ti1,-0.8995788773381683,0.0
mp-27172,Cl9Cs3In2,-1.94036010955665,0.0
mp-771957,O6Pb1Ta2,-3.001675573333334,0.0
mp-27271,Ge5O14Tl8,-1.41996391648148,0.0
mp-3054,C1Li2O3,-2.245986399444444,0.0
mp-625359,H1Nd1O2,-2.8906488975,0.0
mp-5308,La1O9Ta3,-3.3120452979743744,0.0
mp-29044,Cd4I3Sb2,-0.5097873158333329,0.0
mp-697331,H4Mg2Ni1,-0.29507712785714296,0.0
mp-1019549,Ba1Mg2O7Si2,-3.300472064479166,0.0
mp-770961,Li2Mn2O5Ti1,-2.514007084461207,0.05597970549846849
mp-755634,Hg1O4Y2,-2.823062449464288,1.877749997904386e-05
mp-761971,La1Li1Nb4O12,-3.0948719229629638,0.08185409895833355
mp-772228,Cd1O11P4,-2.1925215490252974,0.0
mp-556454,O2Si1,-3.0340239579166663,0.0
mp-531590,Al22O34Sr1,-3.4184376257017544,0.013654667105258337
mp-560209,Al3Li9O29P8,-2.867123486523324,0.008116918485698961
mp-14023,F12Li3Na3Sc2,-3.5850757519568965,0.0
mp-10175,Cd1F3K1,-2.6884609681,0.0
mp-4917,As1La1O4,-2.6331692104166655,0.0
mp-771267,Fe7Li1O12Zn1,-1.692872042777777,0.05449378738095251
mp-754902,C1Li1O7S1Sb1,-1.8914165109280299,0.06733935823857416
mp-770151,B1Li2O4V1,-2.5213271372916672,0.0678736334372787
mp-540204,Co2O10P3,-2.248930889261904,0.01711278666658842
mp-771774,C1Na2O7Si1Sn1,-2.3634606648132177,0.01350646815971146
mp-17887,O7P2Sn1,-2.4830099084285706,0.0
mp-560266,B5Na3O8S1,-2.54080010888903,0.005475456756596403
mp-550820,O1P1Sm1Zn1,-2.0210459630357143,0.0
mp-11604,Cu1K1S4Sm2,-1.8931913619374998,0.0
mp-771386,B1O4V1,-2.44778117375,0.0
mp-764201,F5Li2O3V3,-2.8816881996474355,0.0756074132184855
mp-556247,Dy3N1S3,-2.3025041285267815,0.0
mp-37014,Gd1O4Pa1,-4.147496185833333,0.0
mp-18720,Cd1Mn2O4,-1.9012544705665013,0.0
mp-766217,Cu2O7Sr4,-2.2088072015384626,0.0
mp-23465,Cl6Cs2Te1,-1.7204429284418892,0.0
mp-721299,H13N3O8S2,-1.1442881477403841,0.0
mp-772080,Ba1I5La1,-1.8840651923214284,0.026402626785713527
mp-6653,Ba2Er1Nb1O6,-3.4806942842500006,0.0
mp-17972,F6Hg2O1Zn2,-2.0405813353409097,0.0
mp-755463,Li3S3Sb1,-1.1325176010714277,0.00013465142857122764
mp-18656,Ga1Gd1O3,-3.07849731375,0.04913254691058526
mp-649334,Cl7Fe1S1,-0.9331423964583334,0.0
mp-4524,Ge1P2Zn1,-0.2751048914880947,0.0
mp-777553,F4Fe1Li1,-2.7475131824999997,0.002276242685136154
mp-754636,Bi1Er1O3,-2.8085658882500004,0.030865469125096114
mp-505312,Cu1Fe1O3S1Sr2,-2.1188329897135416,0.0
mp-768042,C1Fe1Na2O7P1,-2.235685907283456,0.0
mp-758925,As4H6Na6O19Zn3,-1.799888048567377,0.0037502771712006598
mp-557346,S1Zn1,-1.062134902118055,0.0
mp-758269,Ba8In6O17,-2.4041430557258057,0.0722380050000022
mp-705001,Cr1Li1O7P2,-2.6216615902380953,0.0
mp-6233,Na1O6Ru1Sr3,-2.5345017051253906,0.0
mp-542734,O3Rh2,-0.9101359639999999,0.025009798999999156
mp-772672,O7Sm2V2,-3.0982241325,0.04198440931826623
mp-756648,Li1Nd1O2,-3.0355737554166655,0.012116265937469173
mp-18010,Pd3Se8Ta2,-0.7112176590128237,0.0
mp-772036,O19Ta7Y1,-3.1945353613456984,0.003704667592598054
mp-561235,As1C1F11S1,-2.1081397149999996,0.09121772821430518
mp-775842,B2Bi24O39,-1.7060342838397438,0.05767894319231459
mp-36539,Bi1K1Se2,-0.9184257667343747,0.05400291136363611
mp-768570,Ca1I6Sr2,-1.884486515,0.02224016625499677
mp-686588,Al11Na10O48Rb1Si13,-3.064251320156834,0.10111289439682077
mp-777449,Li4O12Sn1V5,-2.335581289469697,0.1064367478988308
mp-753802,O7Sc2Ti2,-3.557962005303032,0.0
mp-635020,Bi4Cs6O9,-1.64822078975953,0.012639880921029195
mp-5558,Na1O4Re1,-2.270821991091953,0.0
mp-774100,Dy29O48Y3,-4.0066152256250005,0.00014604521249665935
mp-23723,Ca1H2K2O9S2,-2.23343526965625,0.0027704429703900857
mp-19358,Mn2O5Sm1,-2.6258460551077523,0.0
mp-31249,La2O11Te4,-2.3011460649509683,0.0
mp-771112,Li2Mn3Ni1O8,-1.9481946439614108,0.0
mp-1019808,B3Be2K1O7,-2.8993489209038463,0.000986746025611423
mp-16061,S17Sb6Sr6,-1.336372016120688,0.0
mp-4124,C1Ca1N2,-1.0398727162500006,0.0
mp-763934,F5Mn3O1,-2.7481493427825683,0.021278438194478215
mp-16585,B4Hg1O7,-2.233096311666666,0.0
mp-771365,Cr7Li24O36Ti5,-2.5402853253703706,0.014680092082859315
mp-510624,Fe1O3Sr1,-2.295802563000001,0.0
mp-690490,O4Ti1V1,-2.955169474722222,0.030006419583347228
mp-558946,Ba1F1Sb1Se2,-1.9912804439375003,0.0053799406278439935
mp-768974,Ba1Cl11Y3,-2.6897894950000003,0.07089314366666694
mp-560217,Al2B2K2O7,-2.9888062550256396,0.0
mp-30520,S5Tl2,-0.19537889058035976,0.0
mp-1004528,B3Cs1F12Pb1,-3.14206432443712,0.0
mp-770360,Al1Li2O4V1,-2.696881187083333,0.02526102843737732
mp-23499,Cl6K2Sn1,-1.8519207621666658,0.0
mp-557364,B2Cd1F8,-2.9980013003030295,0.0
mp-27369,Cl3Ge1Rb1,-1.6913838954999996,0.0
mp-16036,O2Tb2Te1,-3.3293190048333323,0.0
mp-13743,Ga1K3O3,-1.8854447138214294,0.0
mp-754381,N4Zr3,-1.8098229192857136,0.0
mp-676074,F6Na2Th1,-3.806197708333334,0.0
mp-672273,Al1Bi1Cl6,-1.7203410762500004,0.0
mp-570583,Cl11N3P4,-1.0241457329629624,0.0
mp-22978,Cl4Mn1Rb2,-1.954090683275862,0.0
mp-28037,Br2Mo2S1,-1.0443476092916664,0.0
mp-652046,Br1Re3S4,-0.6602120476562483,0.0
mp-30532,I4Tl2Zn1,-0.9011491309523808,0.0
mp-674972,Cl16Pb5Rb6,-1.8688845685185185,0.02603726314815078
mp-625894,Ba1H2O3,-1.2928213525000003,0.27852056104164014
mp-12368,F6N1S2Sb1,-1.8290017175000002,0.00992141697592892
mp-754246,O3Sn1Ti1,-2.7553748499166666,0.0
mp-23675,Br1H4N1,-0.7096675174999998,0.0
mp-573114,Cu1Gd3Ge1S7,-1.7441592626562503,0.0
mp-684104,Li1O16P5Sb2,-2.4277564011061497,0.04707607749990957
mp-17366,Ho2O4S1Si1,-3.3556666164973983,0.018573310197352644
mp-3335,O7Sm2Ti2,-3.618018207575757,0.009799790909072731
mp-673156,Li2Nb1O13P4,-2.6719833624375005,0.06307986812263096
mp-768320,La5Li1O24Ti8,-3.619279483289474,0.026505432181511572
mp-556699,H1Na2O3P1,-2.15371383802164,0.0
mp-674508,F3Pb1Rb1,-2.675963360750001,0.0
mp-760396,Al1O4Ta1,-3.342155482888888,0.0
mp-19467,Ag1Mo3O16P3,-2.2016258574171816,0.004959815924409653
mp-14983,P4Ru1Si4,-0.40106587410052913,0.0
mp-20289,In1Na1S2,-1.0899044539062483,0.0
mp-764977,F3Fe1Li2O1,-2.6411479782738096,0.059765179087798055
mp-559103,Na7O24P7Y2,-2.884822593813218,0.0008923962912490424
mp-765585,Ca3O9Tl4,-1.9345752620052084,0.004999227421871089
mp-27250,Cs1O4Tc1,-1.9105660858333333,0.0
mp-684493,Li1O10P3Sn2,-2.427627570208333,0.04674529239519831
mp-23797,Cl1H6Li1O7,-1.1649936835555545,0.007294290666634851
mp-4736,Nd1O14P5,-2.824700888333332,0.0
mp-19290,As2Mn2O7,-1.2252345208150464,0.0
mp-560004,Na2O6Si1U1,-3.0619351884008603,0.04136665087627058
mp-676937,O25Pb6Ta8,-2.8480583440042744,0.0
mp-27451,Br5Pb1Tl3,-1.2378389691666658,0.0012247415277776162
mp-626703,Cr1H1O2,-1.938868442187501,0.0
mp-1001112,C1H3Na2O6,-1.257799827654453,0.277870717586735
mp-556843,As1Nd1O4,-2.7812859925000004,0.0
mp-7642,Ag1As1K2,-0.49967874124999945,0.0
mp-704459,Cr2Na2O7,-1.9470952820454541,0.0
mp-773160,C1Cr1Li1O7S1,-2.0611318691098472,0.04495592136432756
mp-510011,Cu1Ge1La3Se7,-1.688348896367188,0.0
mp-758635,H12O15S2U1,-1.7336087369166677,0.010832509957964713
mp-33018,Rb3Sb1,-0.36403949312500017,0.0
mp-541689,In3Na7Se8,-1.1224694658117818,0.0
mp-10165,Al1K1Te2,-0.9589357946875019,0.0
mp-7064,Er2O7Si2,-3.5651534546969685,0.0
mp-14175,K3Nb1O8,-1.6829479909791647,0.0
mp-772590,B4Li6O16S1V2,-2.5105733523850575,0.08363064279571708
mp-11123,Cs1Hg1Se3Y1,-1.466106855271492,0.0
mp-774922,O8Te1Ti3,-2.923795299722221,0.07404815472268982
mp-755556,Ba6O8Zr1,-3.0566652399999996,0.04797967999999126
mp-559160,Na1O7Se2Sm1,-1.8091259623295457,0.0
mp-754992,Lu1O2Tl1,-2.7776473087500015,0.10169634671905081
mp-33526,Bi1Li1S2,-0.9846615883333323,0.0
mp-551675,Li3O4U1,-2.9463962512499986,0.0
mp-777680,F5Li2V1,-3.1557998639583333,0.0065138908332991186
mp-560445,Er2O4Sr1,-3.717361905238095,0.0
mp-555229,C1H5N1O2,-0.9134292559722224,0.04653425034721259
mp-558893,C1F11S1Sb1,-2.1989229905357144,0.0704388461966557
mp-409,Na1S1,-1.0015031289062495,0.0
mp-698457,C2H4Li1Na1O5,-1.5081590330548182,0.0807267028158515
mp-504801,Er1H1O2,-2.932129859270834,0.0
mp-5692,O3Rh1Tb1,-2.4879511614999985,0.0
mp-29144,F9K1Te2,-2.4259620913541675,0.0
mp-505697,Bi6O20P4Pb1,-2.2673065912365593,0.0
mp-758891,Cu1Li3O5P1,-2.295850888214285,0.09411771550033343
mp-752684,Ba1O4Tm2,-3.6919890128571446,0.0
mp-510055,B2Co2O5,-2.1488581306481476,0.03249892425930807
mp-23214,Ca1Cl2,-2.6461558583333336,0.0
mp-569952,Cl3Cu1K2,-1.62601347125,0.0
mp-4681,Na1Nb1O3,-2.648172776,0.0
mp-554218,O24P6Pb1Ti4,-2.9767013852380955,0.0
mp-4086,La2O7Sn2,-3.0180834392045455,0.0
mp-559223,C4Gd1H6N1O9,-1.6240925559523813,0.0
mp-17123,Os1Si2,-0.4983536825000006,0.0
mp-15919,Ag1Be1O4P1,-2.375236750782312,0.0
mp-557259,F6Mo1,-2.590767720357143,0.0
mp-557941,As1H5K4O16S3,-1.8910623506982749,0.0
mp-2589,Mg1O2,-2.021607005833333,0.024245250416662145
mp-15960,Al1Li5O4,-2.450371624708333,0.0
mp-770473,Ca1I5La1,-1.8698243328571427,0.02414156678571417
mp-541656,Au1Cl2,-0.31720318750000115,0.0
mp-540850,F6P1Tl1,-2.815866648958333,0.0
mp-5168,Al1P3Si1,-0.37311004003571496,0.010672719499998307
mp-690534,F3Fe1K3,-1.9497670498928568,0.5012089307142753
mp-18994,Cs1Mn1O4,-1.4925808997270125,0.0
mp-17464,Ge1O3Sr1,-2.525073384000001,0.0
mp-567474,Cl4Cr1Li2,-1.7782419995238092,0.037616759920634735
mp-677081,Ga9La11Mg3O34Sr1,-3.100924919425287,0.10958512791036217
mp-765753,Mn1Na1O4,-1.383671139497127,0.04377944568733957
mp-707938,C4H18Mg1N8O9S1,-1.0023891932926832,0.0054237104247564305
mp-771240,La2O13P4,-3.1649386685307017,0.0034640127631653016
mp-1508,La1S2,-2.1415035281249977,0.0
mp-721330,Al17Na3O96Rb14Si31,-3.1118356185382314,0.10262873248350232
mp-760781,Ag1F4Li2,-2.3731621345238096,0.03386068142858534
mp-28420,H4O3Sr1,-1.8005284184895833,0.003680094999892969
mp-27698,O12U1Y6,-3.9695304913157905,0.0
mp-570140,Au1Br1,-0.21123082500000123,0.0
mp-7305,F7Sm1Zr1,-4.197381154166667,0.0
mp-758861,Ag1F4Li3,-2.5917906877083334,0.07941287276045017
mp-555487,O2Sn1,-1.876404863611111,0.0
mp-23256,B1Cl1,-0.8562718572395829,0.00808626038194793
mp-559768,La2O7Ti2,-3.7843619766287873,0.0
mp-677732,Cd1F1Nd1O6Ti2,-3.160182893787879,0.15109795759086675
mp-17830,Au1Ge4Rb3,-0.26604828406250025,0.0
mp-769201,C1Cu1H1Li1O4,-1.5603411413020822,0.09351831947916955
mp-764414,K2Li2Ni1O4,-1.4535142927962967,0.06366626430553879
mp-756313,Ca1I4Pb1,-1.3425743312499996,0.00010831875000076134
mp-26649,Li2O7P2Sn1,-2.553240422465277,0.017169976038809764
mp-1020361,Mg1O3Si1,-3.227324584499999,0.005957224250073523
mp-17959,Nd2O4Si1Te1,-3.266484649583334,0.0
mp-753737,Cu1Li3S2,-1.1689424918749995,0.0
mp-22786,Ni1Sn1Th1,-0.7338497233333309,0.0
mp-16921,As3Ge1K1Na4,-0.40610075463409956,0.0
mp-774276,Cr3Li2O8Sn1,-2.2657464652976196,0.010724410236219077
mp-558597,F8Li1Na1Y2,-4.025619819305554,0.004854627500023412
mp-689963,Cr1O4P1,-2.420237606190476,0.0
mp-19114,Ca2Ni1O6W1,-2.6055992424999994,0.0
mp-560198,O13Te6Zn1,-1.1712534655000013,0.017288772281250787
mp-28027,As1F3,-2.2311493581249993,0.0
mp-557330,B5Cl1O9Sr2,-3.069777458872549,0.0
mp-22963,Br6K2Te1,-1.236541104166668,0.0
mp-558149,B1F3,-2.9280473268750002,0.0
mp-13811,Ba2Mg1O6U1,-3.4610270372499996,0.0
mp-755949,Ca4I6O1,-2.0937577324999994,0.08415411863636538
mp-14791,As2Ge2Te5,0.008465033888885247,0.014632804444444727
mp-20496,Ga2O4Pb1,-1.8516907607142872,0.0
mp-17048,Rb2S4W1,-1.2816011639285705,0.0
mp-6119,Na2Nd2O10Ti3,-3.3623647779766723,0.031198075661534704
mp-657344,B26Na12O45,-2.7465631586831805,0.0075710947894005
mp-1020014,B11Li3O18,-2.818307184635417,0.0
mp-1367,Mg2Si1,-0.10859876333333318,0.0
mp-19447,Cs2Na1O4V1,-2.2899797975862075,0.0
mp-771031,Lu2O5Ti1,-3.9193467424479156,0.0
mp-19225,Ag1Fe1O2,-1.0036424137500006,0.0
mp-768990,Li7Nb1S6,-1.3768082505059525,0.06623992492477093
mp-685168,Be1F2,-3.4378404408333325,0.0
mp-639558,O2Si1,-3.0235304379761905,0.0
mp-562541,Cs2Na3O4Tl1,-1.432056585385057,0.0
mp-24052,Ca1H4Mg1Ni1,-0.505716038928572,0.0
mp-773252,Li2Ni1O2,-1.2617468471969693,0.08186355399999438
mp-754597,Lu1O3Tl1,-2.5257674170000017,0.08509008949975225
mp-571235,I4Zr1,-1.268388021333331,0.0
mp-29466,Ce1N5Si3,-1.489711484583334,0.00494431898147971
mp-559748,Ga1Ge2Nd1O7,-2.5926456435227268,0.0
mp-754224,Ba1I6Sr2,-2.00498844388889,0.010380434166666872
mp-541667,Br1Nb1Se1,-1.1973849609374994,0.0006921214583273105
mp-776509,N2O11Sr2Ti6,-3.1732399242658738,0.025088564774547097
mp-560901,Cl1Pd1S1,-0.47987773885416846,0.0
mp-11713,C1Si1,-0.3044903972499995,0.0
mp-28218,Cd1Cl3Tl1,-1.2461141529999993,0.0
mp-1019530,Ba2O7P2,-3.2203723260714274,0.0
mp-567776,Ag1Au1Cl6Cs2,-1.4493178260977018,0.0
mp-765142,Co1Li1O4Si1,-2.2913224119047624,0.04657210197674796
mp-754031,Br1O1Y1,-3.3463835634722217,0.0
mp-557158,Cr1F6Mo1,-2.813469503125,0.0
mp-561181,O2Si1,-3.030422300198414,0.0
mp-769397,Mg1O3S1,-2.280392855,0.03658874196369588
mp-763433,F4Li2Mn1,-3.0053662749425283,0.01941146571428882
mp-776770,F5Fe1Li1,-2.4114596170833336,0.003887139285784055
mp-555014,F5Mn1Rb2,-2.97361525067888,0.0
mp-770883,Co2K4O5,-1.3443825001363634,0.013116749480498154
mp-14214,Ba4P4Si1,-0.969867989007936,0.0
mp-772170,Ca1I5La1,-1.8189287603571427,0.02414156678571417
mp-772673,Li1Ni1O4P1,-2.3045331025680267,0.0
mp-569859,Mn1Sn1Te4Tl2,-0.4427452320330465,0.000262114652777784
mp-1020144,B4Be4Na2O11,-2.8756262084250133,0.0009184293449307358
mp-557637,Hg2O3Se1,-0.9279808530989584,0.0
mp-558500,Ag2Ge1K2S4,-0.8938394468703703,0.0
mp-695043,H5K4O16P1Se3,-1.7002059385298127,0.0
mp-554252,Cr1F6K2Na1,-3.1243704477551724,0.0
mp-19083,Na1O3V1,-2.4829405870000003,0.0
mp-554259,Ag1B7O12Sr1,-2.7732130321825395,0.0
mp-560889,Ba6Na2O15Si4,-3.213740519268837,0.0
mp-761944,Co3Fe1Li2O8,-1.5607463819047618,0.0009358778347916541
mp-3870,Nb2O7Sr2,-3.1070431954545445,0.0
mp-23125,Cl6Fe1K3Na1,-1.9180099198299372,0.016453148333343458
mp-1019559,B2Ca2O5,-3.0785815947222224,0.0
mp-777448,F4Li2V1,-3.058384466666667,0.017120418928580454
mp-756084,Ba1Na4O3,-1.7292518628071125,0.056294382499971984
mp-1509,S3Sn2,-0.47331488118749976,0.004694265999999558
mp-29590,F5O1Sn2,-2.4605786884375007,0.0
mp-558022,B1O5P1Sr1,-3.1226171311979165,0.0
mp-600061,O2Si1,-3.252994432083333,0.0
mp-18875,Mg1O4W1,-2.5682111649999997,0.0
mp-567628,Br6Dy1Li1Rb2,-2.1666011678333335,0.0
mp-684617,Bi2O3,-1.541477113833334,0.0
mp-774868,O11P4Zn1,-2.474182532317709,0.0
mp-756117,Li2O6Te1Ti1,-2.415672097666666,0.0
mp-773516,Li3Ni1O3,-1.7167895223214285,0.030946214285709824
mp-542012,Hf3Rb4S14,-1.2817911159226203,0.0
mp-504811,O7Pb4Rb2,-1.2828594509615396,0.0
mp-12309,Al3Cs2F12Na1,-3.6570669829118776,0.0
mp-755948,O5Ti1Tm2,-3.836255891927083,0.0
mp-694933,Mg1O15Pb5Ti3W1,-2.46261939685,0.05349506435877828
mp-10780,Rb1Se2Sm1,-1.9658096992968743,0.0
mp-770525,C4Mn2Na6O16S1,-2.096452896263377,0.0
mp-27341,B1H4N1,-0.42805591062500054,0.007870140138887946
mp-758332,Ca1Gd4O7,-3.7550340098958324,0.044693457500012336
mp-510535,B5Cs1O8,-2.8306450243760253,0.0
mp-707138,Ag2H1O4P1,-1.5772494337500003,0.0
mp-772843,C1K1O7P1Si1,-2.510763324717532,0.0805377172726884
mp-1019796,K4O7P2,-2.6028277362142846,0.0
mp-18764,Ba2O6Sr1W1,-2.9692062739166674,0.0
mp-23043,Br5Pb2Rb1,-1.3948565470312495,0.0041707168749993695
mp-558227,F7K2Mn2Rb1,-3.005612812238507,0.0
mp-555408,F6I1S7Sb1,-1.2819280509999993,0.0
mp-643253,Ba2H6Pt1,-0.6581700763888895,0.0
mp-30209,B1H4Li1,-0.4484348137500002,0.0
mp-6671,O7S3Si2Sm4,-3.257190425976563,0.0
mp-5496,Al5C3N1,-0.36983239416666674,0.043991491666665966
mp-10615,Ba1Li1P1,-0.8761173826587297,0.0
mp-542148,F11N5Sb2,-1.6715793809722217,0.0
mp-27322,Nb2O11Te3,-2.1695596070312497,0.012627913437511573
mp-694856,Bi8O17V2,-1.7067371736574075,0.16972134039700076
mp-1002124,C1Hf1,-0.29745312874999996,0.0
mp-754345,Li1O3Ta1,-3.0393071599166674,0.0
mp-19251,Cr1Li1O4Rb1,-2.091137045119047,0.0
mp-755401,Cu1Na3O2,-1.269607182083334,0.0
mp-2940,Lu1O4P1,-3.3747614024404746,0.0
mp-32826,Dy2S3,-2.3468068799375006,0.0
mp-624218,Cl5N4O1P3S1,-0.8551796615306121,0.0855588728542056
mp-559417,B2Cl1La1O4,-3.1439691097916658,0.0
mp-643651,H5Rb3Zn1,-0.3060705558333328,0.001264801111111158
mp-753197,Hf1O4Ti1,-3.726490178472222,0.03515296666667448
mp-638731,C1F1La1O3,-3.133604749097221,0.0
mp-774702,Bi1Li3O4,-1.8887540337499997,0.0
mp-600004,O2Si1,-3.0269249449999998,0.0
mp-653062,Cl8Mo2O1,-1.2584637623863641,0.08296739303031796
mp-28355,Ge2Na4Se5,-1.0216692534477863,0.0
mp-674298,Al22Cd1O34,-3.3283140257456143,0.028266455701760493
mp-560228,K6O7Ti2,-2.541615205177778,0.0
mp-562100,Nb1S3,-0.884523274609375,0.0
mp-754240,Ca1O4Sm2,-3.5318178182142868,0.07656761553573078
mp-15559,K1S8Sb5,-0.46007861901785574,0.0
mp-561321,As1Cl1F6N2S2Se1,-1.362074230084134,0.06642954062912146
mp-24381,Cl1H5O2,-0.9690407917187498,0.009221502812499116
mp-4995,Li1O3Sb1,-2.1189574734166667,0.0
mp-16293,K1O3Sb1,-2.0093617348499997,0.0
mp-697853,Ba3O6W1,-2.7589049929999994,0.0
mp-34293,Cs1N2Ta1,-1.1407972512083298,0.0
mp-570485,Al1H1Si1Sr1,-0.4586405203124997,0.0
mp-6949,F3In1,-2.7649092743749994,0.0
mp-35308,C1Cu1N1,0.23931063583333292,0.2389047096233329