Material ID,Compound,Energy,Hull Distance
mp-560293,La5Li1O24Ti8,-3.635561842763157,0.026505432181511572
mp-565428,Bi3Mn4N1O15,-1.6446298242597452,0.0
mp-22939,Bi1Cl1O1,-1.4275749049999955,0.0
mp-17560,Na2O4U1,-2.856759926071431,0.0
mp-15432,As3Ga2K2,-0.5942382357142841,0.0
mp-643264,Ba1Fe1H8Mg2,-0.48964906833333366,0.0
mp-556407,Ba3Bi2O9Te1,-2.338715773944444,0.0
mp-23740,H1Mg2O5P1,-2.624322611858465,0.0
mp-770509,Al1Li1O4V1,-2.773289058333332,0.03492819497596754
mp-554442,Au1F4Li1,-2.020699798888889,0.0
mp-28123,F4H7N1,-1.3279606670833335,0.0
mp-560407,K1Nb1O7Si2,-3.114127421749999,0.0
mp-567329,As4Br7Cr1Hg6,-0.6140884091666664,0.0
mp-759678,Li4O32Ti15,-3.2904969245751623,0.08605513446761504
mp-674373,O7Rb2U2,-3.2971086352272723,0.0
mp-560449,F7K3Ni2,-2.6719867386458334,0.0
mp-773138,As1C1Cr1Na1O7,-1.864888037300156,0.058693482523460266
mp-7566,In1O4P1,-2.2826572438293637,0.0
mp-760701,Li1Nb1O3,-2.8610288211666655,0.0
mp-769606,Fe13Li1O24Zn4,-1.6682066374603166,0.07523531607146677
mp-38220,N1O3Rb1,-1.39907869675,0.0
mp-6450,Al1K2Li1P2,-0.6409448576666664,0.0
mp-763065,F1Fe1O1,-2.0174154572222225,0.040905479444460845
mp-1938,Al2O3,-3.3339584707499994,0.0
mp-19440,Li1O3V1,-2.5141051908333325,0.0
mp-4636,Cu1O2Sc1,-2.601150951250002,0.0
mp-4591,Nb2O6Sr1,-3.017926064722223,0.0
mp-697701,H8La1O7P3,-1.6547412024436088,0.03884864307744426
mp-6330,N3O11Rb1U1,-1.7115594455468752,0.0
mp-28545,Li1O1Rb1,-1.5946788852777776,0.002533535000001604
mp-18422,Li1O3Rb1Zn2,-1.79324080797619,0.0
mp-1019595,Ce5O16Zr3,-3.7308654862499986,0.0396906227083722
mp-18111,Ba2C3F1La1O9,-2.859547788984375,0.0
mp-36508,F6Hg1Sn1,-2.2503075803125014,0.0
mp-556961,O2Si1,-3.0371020112500005,0.0
mp-542151,Ni3O8V2,-1.8691518500000042,0.0
mp-557308,S1Zn1,-0.9618619499062504,0.0
mp-19087,Co2Na3O6Sb1,-1.791175684346264,0.0
mp-546633,Cl1K1O4,-1.0409852928749999,0.0
mp-23127,Ba2Bi1O6Sb1,-2.458725067249999,0.0
mp-2782,P2Zn1,-0.3154203624007934,0.0
mp-616461,Cl4Na2Zn1,-1.737896421428572,0.0
mp-753747,F1O7Ta3,-3.163126545863636,0.0
mp-647575,Cl4K2Zn1,-1.9983554850238092,0.0
mp-554310,Bi1S2Tl1,-0.500396262031245,0.0
mp-571164,Ag1Rb3Se8Sn3,-0.9185584131944443,0.0
mp-28713,Na2O5Te2,-1.7481059133540866,0.0
mp-14447,Ba2Se4Si1,-1.6678200044642852,0.0
mp-22990,Cl2Cs1I1,-1.2875900937499978,0.0
mp-777452,Co1Li1Nb1O4,-2.431933303333334,0.0
mp-23181,I2Sr1,-2.0268267520833327,0.0
mp-690530,Co4Li2O5,-1.000063889772728,0.16352348681816134
mp-755405,Nd2O4Sr1,-3.5413612170238093,0.0324388125000087
mp-559347,O2Si1,-3.2453533131249994,0.0
mp-230,O2Sb1,-1.55603653,0.0
mp-571467,Br6Cs2Na1Y1,-2.217020959908046,0.0
mp-14380,Cs1F6Na1Sn1,-3.023656072753832,0.0
mp-567629,Br3Cs1Pb1,-1.6819858174310318,0.0
mp-600002,O2Si1,-3.2540007129166657,0.0
mp-676,Ca1N6,-0.2333580196428581,0.0
mp-35555,F1La1O1,-4.196724605416667,0.0
mp-15511,Ca1O8Te3,-1.5912473387500015,0.0
mp-1018031,In1K1O2,-1.918778540125,0.0
mp-15148,K4Nb2S11,-1.2224225956691175,0.007290111249824182
mp-6521,La1Li1O4Ti1,-3.452467607380952,0.02893668875039371
mp-643570,H2Ni1O5S1,-1.6006616996527778,0.042339869629681774
mp-13840,Ho3O6Sc1,-4.023603647250001,0.0
mp-18759,Mn3O4,-2.159684799778325,0.0
mp-510283,Cs1Ga1Se3,-1.0720512653372811,0.0
mp-754971,Cs3O3Tm1,-2.2289070359585383,0.0
mp-775264,Co3Li4O10Ti2,-2.32097987118421,0.06778825552664096
mp-762319,Li4O4Ti1,-2.6262186194907406,0.0
mp-561313,Ag6O7Si2,-1.4434219271666657,0.043459554555562364
mp-27211,F13K1Sb4,-2.7566230383194434,0.0
mp-752691,Hf2O7Sr3,-3.6826606671874997,0.008220678750010535
mp-570167,P3Rb3Se11Sn1,-0.7921659329005446,0.0
mp-4624,B1O4Ta1,-3.1462195881944433,0.0
mp-754282,O1Sr1,-2.8855280074999996,0.0
mp-755013,Li5O5Ta1,-2.6514345864999997,0.0
mp-23755,Ba1C3H3O7,-1.795650587946429,0.04876189984389434
mp-754384,O2Sc1Tl1,-2.5677329887499987,0.10025822406263574
mp-19155,Cr1Hg1O4,-1.2959040116666667,0.0
mp-22922,Ag1Cl1,-0.5684399337500015,0.0
mp-18897,Na1O5Te1V1,-2.0451300831932464,0.0
mp-18006,Cu2Rb2S4Sn1,-0.8821618116666659,0.010372499166677842
mp-720287,As1H22Na3O13S2,-1.3097721166989071,0.023815834979987228
mp-29221,Al1Ca2F7,-4.077693714249999,0.0026358959999711828
mp-4180,Ca2O4Si1,-3.3049977057142863,0.0
mp-568469,Ca4N4Ti1,-1.3095440414814818,0.0
mp-769931,O7Ta1Tm3,-3.896649746022726,0.010881706022729531
mp-34580,Er3F17Pb4,-3.5878853923958336,0.0
mp-3536,Al2Mg1O4,-3.3675426814285667,0.0
mp-776490,Al2O3,-3.37950446175,0.0
mp-626448,H4O5S1,-1.4785445794374994,0.0
mp-690560,F1O5Ti1Tl1W1,-2.584570746851851,0.0
mp-560247,Ca2Li2O13Si5,-3.2383333784280315,0.008885771136386918
mp-34982,Ag3Au1S2,-0.0764826192708341,0.0
mp-27931,O2Rb2Sn1,-1.6424335604999982,0.0
mp-20310,In1Li1Se2,-1.0561368999479157,0.0
mp-757376,Al11K1O17,-3.3678856241982755,0.0
mp-775865,Li2Mn1O8Ti3,-3.0910671003284085,0.0
mp-639480,O2Si1,-3.009810087222223,0.0
mp-755892,Cl8La2Sr1,-2.7852405415151513,0.06859911545454946
mp-557071,Bi6Cl1K1O9,-1.456579032647058,0.007868550955853279
mp-530379,O5Tb2Ti1,-3.6453248469270836,0.0
mp-38011,H1K1S1,-0.9378560370416663,0.0
mp-558114,Al1Nb1O8Sr4,-3.2977941667261894,0.0
mp-558781,O4Sc1Ta1,-3.654094695833333,0.0
mp-570005,Br3Sb1,-1.0716280068749997,0.0
mp-29264,Cl7I1S1,-0.6736254541666659,0.0
mp-29267,S9Sb2Sn5,-0.6107775825390629,0.03994070424888707
mp-541622,Cu3K1Te2,-0.45137284593055504,0.013554659444444747
mp-10795,S3Ta1Tl1,-1.0857615926333366,0.0
mp-769602,F3Li2O4S1V1,-2.5564552456628786,0.08623644613745766
mp-15571,Au1K3Se2,-1.1314375848958325,0.0
mp-555144,Al1Ba1F5,-4.040839187857144,0.0
mp-777584,Na7Nb1O6,-1.961900512475369,0.09293073749999843
mp-556814,Ge1Li1Nd1O4,-2.8558242186904756,0.0018364599660191264
mp-555160,Cl2Cs1O3Se1Y1,-2.423215630562365,0.0
mp-556414,Cl2Cs1O3Se1Tm1,-2.237576352070313,0.0
mp-4172,Ge1Na5P3,-0.3568546144731799,0.0
mp-556934,F6K1Na1Si1,-3.3480123606944425,0.00482762036994523
mp-23846,F2H1K1,-2.4998957469999996,0.0
mp-555237,Cl1O4Pr1S1,-2.6403070588095234,0.000190599856635641
mp-690525,C1Mn1O3,-1.9327912453362075,0.0
mp-776646,Co1Na3O3,-1.5252130627339895,0.0
mp-19044,Fe1Na2O4,-1.3431826103940883,0.07417248942857338
mp-1019515,Ba3Ga3N5,-0.6485748063636368,0.006828120000001547
mp-771733,Li3Mg1O16V8,-2.541925819464286,0.02360313397669397
mp-1999,O3Sb2,-1.4498047850000007,0.0
mp-773517,Mn2O5Sc1,-2.532493369795258,0.023405322695301045
mp-650336,C1Cl3N2P1,-0.6295036493537415,0.046038957114506625
mp-28336,Li3P7,-0.4260960960833316,0.0
mp-21892,Al2O4Pb1,-2.8945106149999993,0.0
mp-29040,F19Li3Zr4,-3.8313616775961536,0.0
mp-776767,F4Li2V1,-3.029578401428572,0.017120418928580454
mp-568493,I5In3Sn1,-0.7148603500000001,0.0
mp-774074,Na2O11Sb4,-1.8877236452560846,0.025948417352938773
mp-772295,Cl1O1Tm1,-3.4800750808333354,0.0
mp-754658,O3Te1,-1.3215083276041666,0.0
mp-677371,Cl11La1Sr4,-2.7901097732291675,0.0977100253124985
mp-603414,H6O10Rb2Se1Te1,-1.4462887662005208,0.0
mp-7188,Al2Os1,-0.670291663333335,0.0
mp-754808,La2Mg1O4,-3.546834370714286,0.0699436849999806
mp-1019575,Al6Ca4O16S1,-3.2932241745370363,0.0
mp-6224,Li1O4Sc1Si1,-3.374721481904761,0.0
mp-15171,K2Mg1O4Si1,-2.7919134937187495,0.0
mp-19203,Ba1Co2O7Si2,-2.683751299687499,0.0
mp-19090,Mn1Mo1O6Te1,-1.8686946241219669,0.006177125138934277
mp-19296,O7Si2Sr1V1,-3.1345515179924237,0.002934098386480147
mp-29344,Cl3Ga1Li1,-1.5089667385833336,0.0
mp-561133,Nb4O15Sr5,-3.2787489535416676,0.0
mp-756762,O3Tb1Tm1,-3.892170830500001,0.07989460474995198
mp-558105,B6F1Li1O9,-2.865664935710785,0.0
mp-559304,Er2O13Te5,-2.1982958042916665,0.0
mp-19142,Mn2O7V2,-2.4411082485423194,0.0
mp-624399,Cd1I2,-0.8607199588148162,0.0
mp-11836,Er1Pd1Sb1,-1.1160534633333334,0.0
mp-770927,O7Sm3Ta1,-3.7920856521590904,0.0
mp-2697,O2Sr1,-2.0991925866666676,0.0
mp-23324,Bi1Br1S1,-0.69225840927083,0.0
mp-673633,In2S3,-0.8176111338750005,0.0
mp-755132,N2O3Zr3,-2.87403447578125,0.0
mp-555002,Er2F3Li1O8S2,-3.028779564661459,0.014173770678969078
mp-24340,Ge1H3K3O2S3,-1.3541794067395834,0.0
mp-25400,C1Li2O7P1Ti1,-2.5708999308035705,0.1312147636484203
mp-3216,Li2N2Zr1,-1.3622676031666672,0.0
mp-755448,O3Rb2Sn1,-1.8750717112500002,0.0
mp-705743,Mn1O6Ta2,-3.0841940470941887,0.0
mp-776334,N2O1Ti2,-2.1275920853333345,0.05300393101133736
mp-753520,Bi1Li3S3,-1.1764088242857136,0.02562093928572016
mp-32606,Ba3P2,-0.9811395808571447,0.0
mp-13703,Al4C1O4,-2.5532954697222223,0.0
mp-557722,La1O1S1,-3.0495425100000007,0.0
mp-768636,B1Bi2Li1O5,-2.050319885972222,0.09312404151099606
mp-556850,Ba1F4Mn1,-3.560061476321838,0.0035628524998620272
mp-768199,Li3S3Sb1,-1.083900190357142,0.00013465142857122764
mp-540118,Mn1O4P1,-2.350085636262314,0.0
mp-14495,Li6O4Zn1,-2.034873567272727,0.0
mp-662706,O2Si1,-3.031442371785714,0.0
mp-760360,Hf3N2O3,-3.0416740895312495,0.0
mp-24093,Cu1H1,0.04855152499999971,0.06154782819000015
mp-16264,Ca1Li1Sb1,-1.1071714105555561,0.0
mp-542031,Cr1O4Pb1,-1.7048305983333343,0.0
mp-675881,Bi1F4Rb1,-2.7677423562499994,0.047941254375044075
mp-23131,B1Cl1N2Sr2,-1.7095460187499991,0.0
mp-707172,H5K3O14P4,-2.292615087493589,0.0018198187500737197
mp-3538,Hg3O6Te1,-0.7145961384999993,0.0
mp-14334,F5K2Pd1Rb1,-2.5220950690000006,0.0010207753704689379
mp-38970,Ga2Te3,-0.5752083059999997,2.4934666663423143e-06
mp-647557,O3Pb1Zr1,-2.8465355005,0.026087333438022144
mp-682548,Cl18Cs5H4N1Te3,-1.4864257985372633,0.0
mp-23037,Cl3Cs1Pb1,-1.881022539586207,0.0
mp-557910,Cd2F1O4P1,-2.330040136354167,0.0
mp-4309,Ba1Ga4S7,-1.2580735247916663,0.0
mp-755802,K2Mg1O2,-1.9635271743999994,0.0
mp-558373,Nb3O9Pr1,-3.240336228012821,0.02810701490385106
mp-707368,H8K1N7O2P2S1,-0.7338251909067465,0.07154401062228728
mp-1852,F5U1,-3.777857030416667,0.0
mp-1550,Al1P1,-0.6097721916666661,0.0
mp-540795,Ba3O9Sr1Ta2,-3.3857783468111107,0.0
mp-672334,C1Ga1N5Sr4,-0.8705554656060612,0.009120027121206449
mp-560731,Ba2O20Ti9,-3.5128759211290324,0.005109122056442431
mp-7596,N1Nb1O1,-1.8657717337500017,0.0
mp-554445,Bi5I1O7,-1.5978866340384614,0.0
mp-676804,Ho3O7Ta1,-3.747045335113636,0.0
mp-758033,Ho19O48Y13,-4.008640228458333,0.0
mp-777673,F4Fe1Li2,-2.8319713766666665,0.013517847857180243
mp-12243,F7Rb3Si1,-3.328619652727272,0.003545396363530916
mp-775166,Li2Mn3O8Ti1,-2.3910035556280786,0.0164020411073414
mp-7027,B1In1O3,-2.3016325714999994,0.0
mp-12221,Ca1O4Te1,-2.2706544436111096,0.0
mp-772565,B3Fe5Li2O13,-2.093849505996376,0.0873823725542735
mp-3120,Cu2O5Tm2,-2.5443442754166656,0.05276211541660558
mp-38017,Na2O3Pt1,-1.2198481045833323,0.0
mp-14613,Pr10Se19,-1.954018044615658,0.0
mp-777460,Mn1O4P1,-2.4391671120956495,0.0
mp-558025,O2Si1,-3.0293602192592597,0.0
mp-558169,Al1Ca1F6Na1,-3.821245718069923,0.0
mp-691,Se1Sn1,-0.45354630828125053,0.0
mp-18809,Ge1Li2O5V1,-2.3775831360185182,0.005773421390417453
mp-17973,Cs3F7Ge1,-3.01550319466301,0.002275560909054584
mp-754236,Ge1O5Y2,-3.2248896977604176,0.0
mp-19391,Na1O2V1,-2.346279009762932,0.0
mp-642725,Ca1Cl1H1O1,-2.3169130890625,0.0
mp-753378,Ga1O4Ta1,-2.639547814972225,0.03185840583332281
mp-13336,Rb1Sc5Te8,-1.4777291197023803,0.0
mp-772180,Lu1O3Sc1,-4.007124979583334,0.040151657625067116
mp-600045,O2Si1,-3.0233087045833336,0.0
mp-19173,Mn1O4U1,-2.6550337571551714,0.0
mp-772232,O13P4Tm2,-2.966673225889725,0.0056657578068628825
mp-558200,O2Si1,-2.973198750416666,0.0
mp-555543,S1Zn1,-0.9616303891145831,0.0
mp-28268,I3Pt1,-0.4690516931250004,0.002750410312499979
mp-554053,B1Ga1O4Sr1,-2.8960952245238087,0.0
mp-626529,H7N1O6,-1.1210939523214283,0.006402178749999773
mp-772125,Nb1O5P1,-2.9050067056632645,0.0
mp-625391,H3Na1O2,-1.2811821068750036,0.0
mp-753946,Co1Li1S2,-0.8919901243229162,0.010392184062500531
mp-553981,F4Mn1Rb1,-2.948310465905173,0.0
mp-18003,Cs1Cu1S4,-0.7699304913218393,0.0
mp-532091,In4Na26O19,-1.5444324637755114,0.01688275846938595
mp-735523,Fe3H6O14P1Pb1S1,-1.7518399615247244,0.0
mp-4342,K1Nb1O3,-2.6836600477499983,0.0
mp-29943,H5N1O5,-1.1078426973863638,0.006653825113636264
mp-505391,Cl8Co1Li6,-1.7781626740000016,0.025191383333334018
mp-561257,C2F3Li1N4Pr2,-2.0764810836805565,0.0
mp-567798,As1Hg4I5,-0.4529959175000002,0.010107971562499918
mp-675818,As5Li11Ti1,-0.8386020185294134,0.010784747401959168
mp-646192,Cr1F6Na1,-2.5655028486099143,0.0
mp-30140,Be1I2,-0.7680779908333335,0.0
mp-722866,C1F4H6N3Sb1,-1.2590960729999996,0.00044191216658523067
mp-754349,F1Gd1O1,-4.184387102083334,0.0
mp-554239,C1F3Na1O2Sb1,-2.3199963898814655,0.030886208925690273
mp-541654,F9O1Re1Sb1,-2.5140335591666676,0.025547942040265486
mp-696216,H1N1S3,-0.0280682418749997,0.07812058424413823
mp-561751,Cs1Er1S2,-2.110576687239579,0.0
mp-29694,Au1Br4K1,-0.9367046256250001,0.0
mp-763785,F3Li1Mn2O1,-2.6549966064921997,0.058433116071073855
mp-555390,F1O3Tc1,-1.6158564332500007,0.019074337375019824
mp-754466,Ag1F3Li2,-2.486112128472222,0.019543975555609272
mp-13067,O3Tm2,-4.013206947916667,0.0
mp-777669,F4Fe1Li2,-2.847570611666666,0.013517847857180243
mp-769173,F1O1Pr1,-4.131706042083334,0.0
mp-768411,Dy2O5Si1,-3.6229722881250126,0.0
mp-17612,Ba2O4Si1,-3.3595181574999993,0.0
mp-28303,Na3Se4Si1,-1.030623323281251,0.0
mp-559212,O3Rb1Re1S1,-1.9706960740624997,0.07039286799724831
mp-755399,Cu1Li2O4Sn1,-1.8391936227083323,0.06771297718757241
mp-752439,Ba1I6Sr2,-1.9985251737037038,0.010380434166666872
mp-23070,Ba1Br1F1,-3.45174053083333,0.0
mp-720739,H6O5P2Zn1,-1.3215423603869054,0.07731690272320282
mp-27314,Cl1F8Sb1,-1.9792941639999995,0.0
mp-29598,N7Na1P4,-0.6719268131795649,0.0
mp-15782,K1Pr1S2,-2.111293942760417,0.0
mp-752561,F1O2Sb1,-1.9881783412500003,0.008792512375057626
mp-1018099,Ba2Cl1N1,-1.5444406662499999,0.0
mp-775907,O3Y2,-3.8682470170000007,0.0
mp-27063,Cu1Li2O4P1,-2.2925435062499995,0.04814798843522272
mp-760492,Na4O4Pt1,-1.423181422356322,0.05972307777777767
mp-775802,N2O1Zr2,-2.334103002749997,0.0
mp-560549,Au1Cl1O3Se1,-0.9162713543489586,0.0
mp-19180,Fe1Mo1O7V1,-2.0223959631250006,0.21683336834377265
mp-27522,K2O5Zr2,-3.1380618091111123,0.014735327407582667
mp-557552,Cu1F6Sr2,-3.4244194505555563,0.0
mp-677073,I2K2O3,-1.0961843752857143,0.31631629782235177
mp-762371,F3Nb1O1,-3.2064146934999997,0.0
mp-759673,Bi1Li1O7P2,-2.4991631473863625,0.008196213030155648
mp-10159,K3Sb1,-0.42359330475000023,0.0
mp-569812,Ba1Cl1N3,-1.2466485320000005,0.0
mp-770530,Li14Mn2O9,-2.00801047280115,0.04298790039999801
mp-555812,Bi1Na1O6Sr3,-2.5073088035501567,0.0
mp-555914,Ca1K2O7P2,-2.9351606294930552,0.0
mp-12894,O2S1Y2,-3.5340310955625,0.0
mp-557183,K1Na1O2Zn1,-1.6356595654103443,0.0
mp-556894,Au1Rb2S4Sb1,-0.9021472568750002,0.0
mp-24802,Al3H1O13Si3Sr2,-3.269820138238637,0.02580739469889243
mp-567515,Br8Hg2Pd1Rb2,-1.241670584615385,0.0
mp-722900,Ca1H3N1O5,-1.626149413625,0.0
mp-754388,Ba1I4Sr1,-1.9485381681944443,0.021835488333333746
mp-22328,K4O4Pb1,-1.5859216607777773,0.0
mp-28582,B3Cs1H8,-0.316100485657054,0.004974813701333902
mp-554572,K3Nb1O9P2,-2.7756947810690473,0.0
mp-697278,Al1Ca1F6H2Na1O1,-3.1746247698168104,0.021660621438721606
mp-22932,Br4In1K1,-1.5950381642499998,0.0
mp-676348,Ag7Nb1S6,-0.42035757967261894,0.03095250841655574
mp-704306,K2Mo1O10U2,-2.9686943592999984,0.004169686708195286
mp-30097,Bi2Cl8Te7,-0.8311877368627449,0.0
mp-18377,S1Zn1,-1.0108460905625,0.0
mp-767631,F6Li3V1,-3.1679710045,0.0
mp-621112,Cl9Cs5Nb2S4,-1.8848800341077587,0.0
mp-4609,Hf1O4Si1,-3.6563850574999996,0.0
mp-14354,O7P2Rb2Sr1,-2.9128220401488085,0.0
mp-769381,Ca3O8Ta2,-3.4366223857692306,0.011173808568253426
mp-541513,Gd1Na1O4Ti1,-3.3500909331732354,0.01505249464343653
mp-2416,F3Y1,-4.47081408,0.0
mp-24215,Br3H3N1Sc1,-1.3874718603124996,0.0
mp-554929,Cs1Nb2Nd1O7,-3.182682900877742,0.0213471821590009
mp-764968,H5In1N1O5P1,-1.6129618551602565,0.0
mp-755416,Ga1Ho1O3,-3.1414902562499996,0.01931251253336086
mp-554311,Cr1F6Rb1,-2.6337266103125003,0.0
mp-14678,Al3O12Sc2Y3,-3.809005740125001,0.0
mp-27691,Br6K2Pt1,-1.4071652195555555,0.0
mp-772744,O13P4Tm2,-3.132511750582708,0.0056657578068628825
mp-31105,Bi1Rb1,-0.5089121918749981,0.0
mp-567680,Ba1Cl2,-2.8069131266666685,0.0
mp-759449,Ag2F5Li3,-2.2667495054999973,0.07740469943389919
mp-22869,Cl1O3,0.20085583312499988,0.0
mp-505110,Cu1Fe1O2,-1.316677301874999,0.0
mp-722381,Cd1H4O5S2,-1.2950776289583328,0.05045829286031426
mp-4721,Rb1Sb3Se5,-0.7101384410243049,0.0
mp-561462,Ba2Nd2O13Si4,-3.5133955573214286,0.0
mp-22264,Cs1Nb3O10Sr2,-3.1548739274227735,0.0
mp-19012,Ca1Mo1O3,-2.6172067299999995,0.0
mp-541568,Li3N4Nb1Sr2,-0.9972889995000009,0.0
mp-754848,Na2O3Sn1,-1.9522177258333333,0.0
mp-559139,C3H8N2O1,-0.422015615178572,0.09321127861604563
mp-558807,Ag1P1S4Zn1,-0.644226537687074,0.0
mp-6984,As2K2Si1,-0.4535386481999993,0.0
mp-770958,Fe3Li4Nb1O8,-2.169620500833333,0.04087978422743177
mp-570844,Ga3Os1,-0.31428668125000314,0.0
mp-555073,As2Cl1La3O7,-3.0768605974038463,0.0
mp-5546,Cu8Ge1S6,-0.367530705916667,0.04491466458333289
mp-557560,H4Li1N1O4S1,-1.4738056591666662,0.0
mp-763434,F1Li5Mn1O3,-2.1936051014597693,0.07477526466674825
mp-23384,I1Li1O3,-1.3968044984166668,0.0
mp-568020,Si1Te3Tl3,-0.33554689749999916,0.0
mp-703516,F4H2K2O3Ti1,-2.5892102762777784,0.005889360781636081
mp-1342,Ba1O1,-2.82149134875,0.0
mp-18807,O7V2Zn2,-2.1354795302272733,0.0
mp-15004,Ca3O9Si2Zr1,-3.5361896736666676,0.0
mp-14133,Al5Gd3O12,-3.65045347625,0.0
mp-671913,Cl4Mo1O1Se2,-0.9214557574609379,0.016394766809089134
mp-28029,P3Tc1,-0.4444285787500002,0.0
mp-561531,O7Si2Y2,-3.6213074274999997,0.0
mp-556151,C3H9N3O2,-0.5867333094852933,0.07764945926469814
mp-557635,F10Sb2Se1Te1,-2.3623176673400295,0.0881264175112736
mp-17500,F7Gd1Pt1,-2.7746652702777794,0.0
mp-14416,Be2Ge1O7Sm2,-3.256945119374999,0.0
mp-675146,Pb1Pr2Se4,-1.7358472692261924,0.023853602500012068
mp-17324,S3Sn1Zr1,-1.2748886551875018,0.0
mp-510341,Au1Cs3Ge4,-0.27373507672413755,0.0
mp-622262,Br3Mo1Te6,-0.45998887075,0.0
mp-19103,Cr1Li1O7P2,-2.6755486073863635,0.0
mp-706630,B5H7,-0.18722790059027794,0.0
mp-6680,Ca2O10Rb1Ta3,-3.31275031153125,0.026396279874982387
mp-618177,Cl4K2Zn1,-1.9847975019285715,0.0
mp-628185,K3Na1Se8Sn3,-1.0251700476201155,0.0
mp-12245,F7Rb3Ti1,-3.419390103484852,0.0
mp-559145,Al1O4P1,-3.1047028377876975,0.0
mp-3915,Ba1Hg1O2,-1.7136836106250009,0.0
mp-31036,Br1Cu1Te2,-0.28439669500000164,0.0
mp-642845,H5Pt1Rb3,-0.4219206791666671,0.022547256072796912
mp-699552,Cl4K1Mo1O1,-1.7081743066785708,0.0004340778137237322
mp-28112,Cl9In5,-1.3567058217857144,0.022482653571428455
mp-6711,Al2F12Li3Na3,-3.4610719629999998,0.0
mp-27228,O7Si2Tl6,-1.905907473083333,0.0
mp-31037,Cu1I1Te2,-0.4389318539583318,0.0
mp-769222,Dy2O7Pb2,-2.353477161818182,0.0
mp-560799,H2Na1Nd1O9S2,-2.2755802377145584,0.0
mp-35205,Er1Li1Se2,-1.9416303257812473,0.0
mp-559756,O3Pr1Sc1,-3.795708194333332,0.0
mp-555797,As2O9Zn4,-1.7691007618333339,0.007748205833334983
mp-541482,Ba1C2Ce1F1O6,-2.878162458181818,0.0026525855304096913
mp-19145,Al6Ca4O16W1,-3.2693894103703705,0.02549167171268607
mp-774092,Co1Na3O3,-1.4985302613054188,0.0
mp-6392,Be1Na1O4P1,-2.85911405336031,0.0
mp-756490,Li6Mn1S4,-1.4520107368847952,0.008197090272604835
mp-16904,Ba2Cd1Te3,-1.538608784166666,0.01948655624999862
mp-27673,P1S6Ta1,-0.617902064960564,0.0
mp-767609,F5Li1V1,-3.0926431597619053,0.001775361071415103
mp-11634,Ge1K1Se4Sm1,-1.402254029517857,0.0
mp-27896,B1F3,-2.929437671562501,0.0
mp-542623,S3Sn1Tl2,-0.6233643506944464,0.010826795625000033
mp-10809,Ag1F6Sn1,-2.268524623333333,0.0
mp-28014,Br1H5O2,-1.1349213490625,0.001314150342030862
mp-763104,F4Li2Mn1,-3.012058377085386,0.01941146571428882
mp-768774,B3Bi4Li1O11,-2.1693177314254393,0.0658546460532579
mp-626558,H2O7Ti3,-2.8768974351041656,0.03647492083332556
mp-6568,Ba1C1Ca1O3,-2.6769765754999995,0.587393342604073
mp-551918,Al1Bi1O3,-2.51118319725,0.05258694562509732
mp-706657,Al13Cl1H18O38Si5,-2.595679427433332,0.021220289156036264
mp-763203,F1Li2O2V1,-2.609061078194445,0.006646839166824255
mp-540877,In1La3S6,-2.087781274875,0.0
mp-10556,Li1N4Re1Sr2,-1.0025742976041672,0.0
mp-625809,Ba1H2O3,-1.0387835068181817,0.27852056104164014
mp-27316,F21Rb5Zr4,-3.7653656837916665,0.0
mp-38725,B1H4Na1,-0.3857533079166669,0.0
mp-770553,Al1Co1Li2O4,-2.3353380186458335,0.061861894062596345
mp-4481,Ca2O4Si1,-3.340156025357143,0.0
mp-557025,K2O4Se1,-1.809423031668155,0.0
mp-18839,Ni1O4Pr2,-2.925560129047618,0.05776918678628969
mp-28347,Al2As3K3,-0.72540572296875,0.0