Material ID,Compound,Energy,Hull Distance
mp-772090,Li4O20Ti9,-3.2823981105555546,0.02837147860757031
mp-698134,F10H6K2Na2O3Sb2,-2.301513219214138,0.018737056688298708
mp-12199,Hg3O4P1,-1.8021856126282052,0.0
mp-5860,Hg1K2O2,-1.3370139584000014,0.0
mp-18179,Cd4S6Si1,-0.7622832933522701,0.006585782727271485
mp-686019,O7Ti2Y2,-3.618178333977272,0.008806482045462164
mp-768077,C1Fe1Na2O7P1,-2.244577016473898,0.0
mp-6692,Ba2O6Pr1Sb1,-2.9966763937500005,0.0
mp-651741,Cs2Re2Se5,-0.9642476675089805,0.0
mp-3252,O8Sr1Te3,-1.8761266237499992,0.004741635208355059
mp-24091,F4Ga1H4N1,-1.7194162868750005,0.010067377499983366
mp-29136,Cu3N5Sr6,-0.6192317234821445,0.0
mp-24608,Al1F5H2K2O1,-2.9029673611136366,0.00676948625191058
mp-675065,Er4O12Zr3,-3.918912078333332,0.0
mp-561569,Cs1F7Sb2,-2.6313676842500002,0.0
mp-772114,Ba1I5La1,-1.8932109975,0.026402626785713527
mp-29355,F5Na1Te1,-2.6829549154597707,0.0
mp-4264,K2O5S2,-1.973917681888889,0.05640934115946155
mp-10523,Ce1O4Si1,-3.5607246149999994,0.03316791499987145
mp-772864,Ge2O5Rb2,-2.098879088888889,0.020791355154299553
mp-541113,Cs3P7,-0.43892360396264396,0.0
mp-18439,Al1Ba3Sb3,-1.0831112982142852,0.0
mp-571468,Cu1Ho3Se7Si1,-1.565637736783853,0.007170064802183074
mp-5874,Ag1Te1Tl1,-0.26405708750000184,0.0
mp-566278,O3W1,-2.181402689374999,0.0
mp-585400,Fe1Li1O4P1,-2.4667423878061223,0.0
mp-768281,Ge2Ho2O7,-3.0296254620454532,0.0
mp-19055,Cr1Ho1O4,-2.7607464883333335,0.0
mp-6665,Ba4Li1N7W2,-1.0541952811309525,0.0
mp-3593,O7Sn2Ta2,-2.423022485424241,0.07810135181811907
mp-556161,S1Zn1,-0.9616529856919657,0.0
mp-773512,O6Tm2W1,-3.33276156925926,0.0
mp-777588,F4Fe1Li2,-2.8168678688095237,0.013517847857180243
mp-769046,O7Si2Sn2,-2.347158014734842,0.08655523249999965
mp-561473,Al1Ca1O5Ta1,-3.479570272479166,0.0
mp-559071,Ag2Bi2Cl2S3,-0.7619346622453705,0.0
mp-764983,Cr3Li3O8V1,-2.396585715666666,0.03529771902037169
mp-29826,C1N2Zn1,-0.16552915499999976,0.0
mp-643770,H4Mg1Rb2,-0.29423202499999995,0.013222513095235635
mp-556335,O14P5Y1,-2.8275721676666654,0.0
mp-1018090,Ca1Ga1H1Si1,-0.4235035750000016,0.031684435312499926
mp-569309,Cl3Mn1Rb1,-1.8611316026465525,0.0
mp-768960,B1Li5O4,-2.358719143708332,0.046900530250002605
mp-754883,Ho1K1O2,-3.1282881526249993,0.0
mp-3516,O5Te1U1,-2.7052456775595237,0.004367719821412359
mp-755544,O2Tl1Y1,-2.601992114062501,0.0951321562509686
mp-35152,H5Rh1Sr2,-0.6656485060416677,0.0
mp-28745,I1Nb2Te6,-0.7129997986111118,0.0
mp-3858,Na1O3Ta1,-3.0694247520603453,0.0
mp-570753,Br5Pb1Tl3,-1.0794647044444459,0.0012247415277776162
mp-17149,Er1O6Rh1Sr3,-2.945038959318181,0.0
mp-24328,C1H1O2Rb1,-1.5607603527499996,0.07890288529170242
mp-570045,Cu1Se7Si1Sm3,-1.6191302359505204,0.0
mp-24229,C2Ca1H10Na2O11,-1.7343065407443632,0.004140310248064229
mp-23489,Cs1I1O4,-1.1750133945258607,0.0
mp-28158,Be3K4O5,-2.2998049484583327,0.0
mp-698605,B2Bi1Ca1Ga1O7,-1.7479758279861102,0.0
mp-755366,Cu2Li1O4P1,-1.8410737095833332,0.09721506593559304
mp-22905,Cl1Li1,-2.025595019583333,0.0
mp-30027,Cl3Cr1Rb1,-1.739992118,0.018921703444442172
mp-581639,B1Cl1Mg2N2,-1.3920501475694447,0.024266927812447808
mp-18309,Ba2Cd1S3,-1.8491193462500004,0.0
mp-31374,H30O21S2,-1.354266903396227,0.008606893160374609
mp-757327,Li7O24P7Ti2,-2.7362230603333337,0.0995778520504075
mp-650112,Fe3O4,-1.5833804662499986,0.0
mp-677734,H5K4O16P1Se3,-1.700124918874641,0.0
mp-20474,Cu2Ge1Mn1S4,-0.649962248491379,0.0
mp-685928,Rb5S7Tc3,-1.134158353625,0.0
mp-17862,Ag3Ge5P6,-0.041898267346937246,0.0
mp-771393,As1B1Fe1Na3O7,-2.121304145005525,0.02531107483224942
mp-555129,La3N1S3,-2.3514386056696424,0.0
mp-17183,Be1Na2O4Si1,-2.7099101687500005,0.0
mp-14390,Ga1Na3O23P8,-2.5879852376080215,0.0
mp-29401,Br9C2Er5,-1.8862626151041688,0.0
mp-714969,Mo1O2,-1.7897002774999997,0.0
mp-561194,La10O1S14,-2.609087364200001,0.0
mp-4426,Li4O5Se1,-1.7790172190729165,0.0
mp-755217,Ba1Cs2O2,-1.7904978856724132,0.05244727207042743
mp-703275,Na1Nd1O15Sr3Ti5,-3.48185506632184,0.013456968444669428
mp-777676,F3Li1V1,-2.996077959166667,0.0187409399999968
mp-3200,Lu2O7Ti2,-3.7837369548106055,0.021506787727299134
mp-769517,C1Mn1Na1O7P1,-2.1619737601423723,0.0
mp-675488,I3Li6N1,-1.0437733754999996,0.017277964499999854
mp-645159,Bi1Fe1O3,-1.670130923499999,0.026033656124992532
mp-28593,Br1Li3O1,-1.906672610999999,0.03876863599999965
mp-768333,Dy1O3Y1,-3.894459607916667,0.09656498479996571
mp-775748,Cr3Fe2Li4O16Sn3,-2.104163325297619,0.04709049785663133
mp-28766,K2S3Ti1,-1.5740894712673612,0.0
mp-568252,Cl8Hg2Pd1Rb2,-1.405883885384616,0.0
mp-769393,Dy1O3Se1,-2.3143881450625003,0.0
mp-561350,Al1Bi1Cl4S1,-1.5875729365178575,0.0
mp-4175,P2Sn1Zn1,-0.2587692827380952,0.0
mp-627401,Cd1I2,-0.8516644026666659,0.0
mp-639714,O5Te1Tl1V1,-1.8236823285937493,0.0
mp-763464,Mn1O9Zr4,-3.51186138833436,0.04464944214299038
mp-574909,K2Nb1S7,-1.1156628311625005,0.003220400374860333
mp-768573,Al1Lu3O6,-3.933143622249999,0.02755171774998999
mp-14322,Ba3O9Tm4,-3.6254550540625017,0.0
mp-770618,Mg1Mn1O3,-2.496022857896551,0.0
mp-572597,P1S4Sb1,-0.5989174450000002,0.0
mp-675835,Dy2O19Zr8,-3.7502332746982754,0.0
mp-29603,Rb2Te3Zr1,-1.229215397916666,0.0
mp-707327,H26Na4O13Se6Sn2,-1.2072698585101842,0.011827891257007483
mp-23392,Cd1Cl6K4,-1.9493516154545447,0.0
mp-556226,B3Na1O5,-2.786383984200192,0.0
mp-33406,La2Pb1Se4,-1.8649691991964283,0.01709865428568794
mp-4784,Ca1O3Pt1,-1.802085913000002,0.010892216666712428
mp-1011834,Co1Na2O7P2,-2.446249294876676,0.0
mp-667286,Re6Se8Te7,-0.6447595965674598,0.0
mp-4497,N2O1Si2,-1.8652451845000002,0.0
mp-24585,H2Li1O5P1Zn1,-2.1471131802916665,0.021657581875329512
mp-23690,Ca1H4O6S1,-1.9592084833854162,0.017269113750121672
mp-6527,F12In2Li3Na3,-3.018279385982759,0.0
mp-570706,Cs1Cu3Se4Ti1,-0.9533727217377069,0.0
mp-777451,F4Fe1Li2,-2.8688577077380946,0.013517847857180243
mp-553926,B4Li1Na1O7,-2.7775326977984074,0.0
mp-23391,Cr1I6Tl4,-0.7912178457575785,0.04020213303030702
mp-766196,Bi1Li1O4Si1,-2.483866923809524,0.023689681258661364
mp-7752,N1Sb1Sr3,-1.0279450770000012,0.0
mp-23450,I1O4Rb1,-1.1793426454166667,0.0
mp-5368,F6Ge1Li2,-2.95232252462963,0.0
mp-4930,Al2O5Ti1,-3.4422821846354177,0.013201302187472841
mp-570652,As4Bi1Cl7Hg6,-0.5657830862499983,0.00343262700617222
mp-769310,Bi2O5Si1,-2.2142191157812503,0.012115651562511598
mp-777843,Ge2N2O1,-0.7269402127500001,0.0
mp-707060,Cl4F1Nb1,-2.0850661758333335,0.0
mp-3775,F6Na2Si1,-3.3219408603703715,0.0
mp-5145,Ag3As1Se3,-0.29074423207589206,0.0
mp-10281,S1Zn1,-0.9610861451562513,0.0
mp-5056,Mn2S4Si1,-0.8650912458374387,0.06094873607142835
mp-675562,F6K2Th1,-3.8598367663888857,0.0
mp-557673,Be2O10P3Rb1,-2.8673094390625,0.0
mp-29190,Br1Mo1Te4,-0.6424111611111112,0.0
mp-774907,K1Li1S2Zn1,-1.320393393116666,0.0
mp-757504,O6Ti2Zr1,-3.559360601851852,0.04747102333333844
mp-767771,O13P3W2,-2.4251003271527782,9.684078703979064e-05
mp-27808,Cl2O11Te6,-1.4415722566447366,0.0017086900657923522
mp-758880,Cu1Li1O4P1,-2.149387986377551,0.042708045358219086
mp-763428,Co1Fe3Li3O8,-1.7348358713333332,0.0026251328124447565
mp-23539,Cl5K1Sn2,-1.6353830740312527,0.0
mp-777801,F4Fe1Li1,-2.7754394180555564,0.002276242685136154
mp-557728,As1Cu4K1S4,-0.5704321959749997,0.0
mp-15781,K1La1S2,-2.1641009335624997,0.0
mp-28898,Ba1C1N2,-0.9177255535416672,0.0
mp-27472,F10Nb1Sb1,-2.9819313966666674,0.0
mp-754876,As1O4Sm1,-2.78472785375,0.0
mp-19084,Ba1Mg2O8V2,-2.867267008846154,0.0
mp-555297,C2H16Ho1N1O12S2,-1.3620323894485304,0.06603795799584254
mp-720334,H14Na2O13P2,-1.7126662867264553,0.017875257881539233
mp-715474,Mo1O3,-1.8617923487500008,0.0
mp-769506,C1Fe1Na2O7P1,-2.241320140223898,0.0
mp-13033,Mg1Te1,-1.054114687500002,0.0
mp-540923,Ba3P3Sn1,-0.8745062739285717,0.006333164565008939
mp-4682,O3Se1Zn1,-1.4410515767187497,0.0
mp-22856,Bi2S3,-0.6626376374999999,0.0
mp-766343,Ba2Ca1I6,-1.994687574722222,0.006904217777777709
mp-28555,F5Rb1S1,-2.1121863205803564,0.0
mp-632684,H3N1Na1O3P1,-1.7047638573483397,0.0
mp-18949,Fe1O4V1,-2.063656799999999,0.014644110833282062
mp-30937,Cl1Hg1O3,-0.4641942985,0.02398796708333224
mp-689925,Cs2F6Ni1,-2.396600107873564,0.0
mp-42175,Al1Ca2Cl1H10O8,-1.9329247407954542,0.013469338269063642
mp-616439,Cl4Cs2Cu1,-1.58430078357143,0.0
mp-705024,O7P2V1,-2.560579065541667,0.0
mp-762244,Ag1F4Li2,-2.2909866779761936,0.03386068142858534
mp-772086,Ba4O10Sn3,-2.596409215441176,0.006244782058869489
mp-1039,Mg1Te1,-1.0540910850000014,0.0
mp-557480,O7S1Te2,-1.2346158642812484,0.0
mp-17841,Mg4Nb2O9,-2.9487459063333348,0.0
mp-18928,Mn2O4Si1,-2.5950275544088663,0.0
mp-776984,Ho1In1O3,-2.9365194313333314,0.010214691583092872
mp-2878,Li3O4P1,-2.636718340372024,0.0
mp-677467,Cl18H4N1Rb5Te3,-1.460883819112903,0.0
mp-13973,Gd2O2Se1,-3.3555674638124997,0.0
mp-541071,H1K1O8P2Zr1,-2.8773539038681317,0.0014325669194799563
mp-29250,Cl8Li6V1,-2.009572205333334,0.012738970000048037
mp-776278,N2O1Ti2,-2.1274805320833337,0.05300393101133736
mp-696735,H2O1,-1.047078561666666,0.0
mp-22598,In2O3,-1.9978267692499998,0.0
mp-637982,As5Pb3S10,-0.5117150874305554,0.03063003611111132
mp-12016,Rb2S3Si1,-1.2963615418229157,0.0
mp-769070,Ba1Cl14Y4,-2.6802315003947377,0.08937211855263022
mp-680463,Pb9Rb4,-0.15772634538461552,0.0
mp-31885,Fe2Li3O16P5,-2.5515286481410255,0.015074139918361595
mp-775787,Hf2N2O1,-2.4442625969999994,0.0
mp-551873,Bi2Ca4O1,-1.6165589012500001,0.0
mp-17906,F3Pr1,-4.248068198958333,0.0
mp-733929,H4O8P2Pb1,-1.9662192622857133,0.04998729816660041
mp-10837,F7In1Mg1Na2,-3.192415742100314,0.0
mp-759696,Bi3Li2O28P9,-2.4633871018679128,0.08045873916646312
mp-1020598,O7S3Si2Y4,-3.23473148140625,0.014493204426488937
mp-12244,Cs3F7Ti1,-3.4283228708751308,0.0
mp-3397,Ba2O4Ti1,-3.399818239047619,0.0
mp-559482,Bi2O7Ti2,-2.641261239924241,0.010971801504742923
mp-684017,O11Te4Y2,-2.292288852132353,0.0013555661668250122
mp-23544,Bi4Br2O5,-1.6471018076136361,0.0
mp-12286,O7Sr2Ta2,-3.4967048565606054,0.0
mp-3584,Nd1O4P1,-3.4469592245237943,0.0
mp-756798,Ca1I6Sr2,-1.9487873158333333,0.02224016625499677
mp-23861,Ba1Cl1H1,-1.8352904299999997,0.0
mp-684120,Cu1Li1O7P2,-2.2083119581926396,0.04221003780219557
mp-570379,Cl6Cs2Li1Lu1,-2.4896764969195404,0.0
mp-505046,Gd3O12Sb5,-2.4101402524999997,0.0
mp-19305,Ca1O5V2,-2.7987858228124995,0.0
mp-29129,K2O5Te2,-1.7729063108703693,0.0
mp-626218,H1O3Sb1,-1.31795010875,0.016081775750001626
mp-7035,As1Ca1F1Mg1O4,-2.883437011875,0.0
mp-29592,Cl9P1Re1,-0.7514344748160174,0.0162095149374161
mp-553921,O3Pm2,-3.7377233929999987,0.0
mp-699469,Al1Cl3H15N5,-0.8116173382812507,0.0
mp-554584,Na1O4Pb1Rb3,-1.556361150727969,0.0
mp-760059,Bi5F1O7,-1.721532942980769,0.052580847692333066
mp-753069,Bi5La1O9,-1.982656767583334,0.051399123249611024
mp-690794,H1N1Sr2,-0.7582819718750002,0.0
mp-772862,Ba1I6Sr2,-1.9950377648148145,0.010380434166666872
mp-35311,Cr1F6Zn1,-2.6468611125,0.0
mp-570974,Be1Cl2,-1.5717145800000007,0.0
mp-556860,O7Si2Y2,-3.643579200416666,0.0
mp-754128,Ba3Hf2O7,-3.6405079543750016,0.0
mp-29679,Cl2Hg2P1,-0.6510573556666668,0.028441161571428175
mp-767403,Li5S1Sb1,-0.9667344363095235,0.05033987999999961
mp-651155,I4Te1,-0.463200530833333,0.0
mp-558151,Ag2F1O3P1,-1.7735217147023816,0.005450138532824563
mp-14434,Ge1K3S3,-1.2104877949553565,0.0
mp-16889,Na6Se7Sn2,-1.0713171836454742,0.007135561388893663
mp-560311,F6Fe1Na3,-2.8936588634137927,0.0
mp-698033,Al2F1H8K1O12P2,-2.259472988232141,0.006965264337040913
mp-759224,Cu1F8Li5,-2.7512255533333336,0.000793790238092689
mp-19343,B6Co4O13,-2.3504740269021736,0.0
mp-23416,Cl4Li2Zn1,-1.712035051190476,0.012581398214286261
mp-569613,Ba2Cl1P7,-0.8746253572499981,0.0007382252499848363
mp-16543,Cs3Cu5O4,-1.0857312626077587,0.0
mp-557773,O6Sc2Te1,-2.7323914892592587,0.0
mp-776091,La1Li1Nd1O6Sb1,-3.0297318075833326,0.00581145566722725
mp-638104,Nb2Se11Tl4,-0.7923922070067394,0.0
mp-27123,Er1F1Se1,-3.186122990520832,0.025448741666513303
mp-30931,Na4Se4Si1,-1.1678142447868767,0.0
mp-643412,H2Mn1O5Se1,-1.4591866279471981,0.0
mp-23350,Cl6Pt1Rb2,-1.6356927116666644,0.0
mp-573340,Cl12Nb2Se17,-0.5789885801310491,0.0
mp-10167,Na3S4Sb1,-0.9225810689062506,0.00656663229165555
mp-19085,Ba2Mn1O6W1,-2.744398925293102,0.0
mp-561305,Ba1O4Si1Zn1,-2.9395686140476185,0.010633350833277433
mp-763324,H3Li2Mn2O16P4,-2.258671230179635,0.060193033634309896
mp-607291,Bi1Cu3S3,-0.4254309091964293,0.014256402678571867
mp-24120,As1Ca1H5O6,-1.7821355302884607,0.018839489148486058
mp-24534,Ca1H4O6Se1,-1.6919590670703126,0.0
mp-541431,Ca2H2O5Si1,-2.816271679875,0.002626110749977073
mp-764375,F6Li2V1,-3.130389148888889,0.0
mp-21604,In1S6Sm3,-1.9920560536250007,0.0
mp-570966,Cl11N1P2Zr1,-1.504471203277778,0.0
mp-28802,F14Sr4Zn3,-3.498189609523809,0.017809027775055056
mp-37693,Eu1Nd2S4,-2.406561131607142,0.00029410357142113853
mp-28145,Cl6Pd1Rb2,-1.341112703055556,0.0
mp-695172,Al25Cs1Mg12O108Si29,-3.308546219959606,0.02165687839864794
mp-3160,O7Pr2Si2,-3.601204668409091,0.0
mp-766789,F3Mn1,-2.7349835201077575,0.0
mp-774524,La5Li3Nb2O26Ti6,-3.461036220535715,0.056483607202271933
mp-690493,Li1Mo1O2,-1.9334302414583338,0.037224282961117794
mp-772534,Cl1La1S1,-2.6398283362500004,0.01791272347229918
mp-29012,Ag1I3Tl2,-0.7361352894444448,0.02670374833333448
mp-771697,Ga4La2O9,-2.759427647166667,0.08816374844449229
mp-3376,O4Sn1Sr2,-2.644511874285716,0.0
mp-651332,Br4Se1,-0.73729287871875,0.0
mp-775960,Li4O16Sb3V5,-2.2435887097619056,0.08949365851796008
mp-1008556,Al1Ga1N2,-1.160212889375,0.009518299999999869
mp-776663,Fe3Li4O16Ti2V3,-2.4617927657142866,0.03781064147487052
mp-505743,B1Ga1O4Pb1,-2.300362779880952,0.0
mp-555235,O2Si1,-3.0389092274999996,0.0
mp-18844,Ca1Mn2O4,-2.44544273833744,0.0
mp-684,Ba1S2,-1.6064754502083336,0.0
mp-1008557,Al1B1N2,-1.161681334999999,0.3845308387500008
mp-776083,Hf1O3Sn1,-2.846625680000011,0.069154058499959
mp-19050,Ca2Mn1O4,-2.846856683497537,0.009644277619044723
mp-30308,Au1F6Tl1,-1.5568938192187467,0.0
mp-772958,Er2O13P4,-3.159617874978071,0.021618336841954328
mp-756545,Er2O7Zr2,-3.8193222685606076,0.07873143272727584
mp-573697,Cl1Cs1,-2.169080221249999,0.0
mp-541912,Br1N1Zr1,-1.9729169095833328,0.0
mp-776024,Ca1O3Zr1,-3.6455730689999997,0.0
mp-505397,Cl6K2Pu1,-2.256901425111111,0.0
mp-23966,H2Mg1O5Se1,-1.7002991845659723,0.0
mp-30983,Ca1O11P4,-2.7834700236607137,0.0
mp-5295,La1Nb1O4,-3.5587210391666666,0.0
mp-777392,Li4Ni2O16Sn3V3,-2.1161093013690473,0.09078790779766623
mp-757722,Ba1Ge1O4Zn1,-2.427385630238096,0.040748554761766594
mp-22192,Ru2Si3,-0.619356679500001,0.0
mp-762265,Li3O10V5,-2.4696156326388885,0.05878545208334253
mp-740732,Br1H10O8P3U1,-1.530074411195652,0.03998325594683186
mp-560336,O2Si1,-3.0330357393055585,0.0
mp-770868,O4V1W1,-2.2922477374999985,0.03747693187505341
mp-585269,Li5Mo2O18P5,-2.6079907304444445,0.020764327665241448
mp-677246,Ba6Nb10O51Si8Ti2,-3.2774199780898274,6.205322899239201e-05
mp-510281,Cu1Fe1O2,-1.1102603874999986,0.0
mp-30005,Br4O1Rb6,-1.7959336206818184,0.0
mp-773503,Cr1O7V2,-2.195469759999999,0.041070031187603814
mp-19294,Fe1Li1O7P2,-2.3327678075108222,0.0
mp-675011,Cs1F6P1,-2.9874584978720238,0.0
mp-32798,La2Se3,-2.3133016791562504,0.0
mp-559594,Ga1La1O1Se2,-2.1741244696875,0.005791345911850954
mp-774032,Cr2Li1O4,-2.25907890047619,0.019712365540455985
mp-570008,Bi1N1Sr3,-0.9434717990000003,0.0
mp-23380,I5Pb1Tl3,-0.8897021108333334,0.025309222500000474
mp-777682,Li2Nb1O8V3,-2.651080357619048,0.0029871019709527707
mp-28062,F7Sb2,-2.6812153472222224,0.0
mp-541026,Ca1Mg3O10Si3,-3.228824338676471,0.05869552338234573
mp-13859,F7K3Si1,-3.3351944855909093,0.006560661818540516
mp-757031,Mg2O4Ti1,-3.282417577261905,0.0
mp-769608,Cr3Li4O8V1,-2.4132734936458338,0.0
mp-770832,B1Li2O4Se1,-2.121923330397135,0.05743624498357436
mp-31010,As3Ca2,-1.0303039755,0.0
mp-601257,Cu1Dy1Pb1Se3,-1.238325186032985,0.0
mp-6227,Ca2O7Si2Zn1,-3.153905436458333,0.015509873333340233
mp-754736,Ba1I8Sr3,-1.9817693158333338,0.03516337625000047
mp-568443,Al2Cl8V1,-1.6701747172727281,0.0
mp-773103,Er1O19Ta7,-3.417835852268518,0.008482936111114989
mp-776273,N2O1Zr2,-2.2723337230833343,0.0
mp-755115,Cu1O4Re1,-1.7141887099999995,0.0
mp-16871,Ge2K2O7Zr1,-2.598342845999999,0.0
mp-18992,Ba2Mn1O6Te1,-2.477914109959771,0.0
mp-757149,Hf7O16Sr2,-3.8330868611999995,0.0027425683000046773
mp-542802,Cu1Pb1S3Y1,-1.3535874364236111,0.0
mp-28965,Ag1Bi2F12,-2.0213750491111115,0.0
mp-29383,Ga1K1Sb2,-0.4142648546250003,0.0
mp-28476,Bi1Se3Sr1,-1.306122717239584,0.005422969515618803
mp-19396,Fe2Na4O5,-1.7063198634051715,0.035198714011508064
mp-573581,Na2Se3Te1,-0.7647873803645832,0.0
mp-530709,Br7Tl1W3,-0.9590025876893943,0.0
mp-23076,Cl4Co1Rb2,-1.7684639775,0.0
mp-22356,Hg1In2S4,-0.735224684642857,0.0
mp-557792,Cl6Hf1O1S1,-1.7781936360416668,0.0
mp-768426,Ba2I7Y1,-1.87763759925,0.031066457500000054
mp-3564,Ba1O4Sc2,-3.6903760280952387,0.0
mp-29341,Au6K4S5,-0.8144672511749997,0.0
mp-23231,Ag1Br1,-0.5043995525000007,0.0
mp-722344,B22Ca4Cl1H18K1O46,-2.474229138113224,0.00179439740165723
mp-754149,F1Gd1O1,-4.104939840416666,0.0
mp-675882,Dy2O5Ti1,-3.6907400316354178,0.0
mp-4043,Cu3Nb1Se4,-0.5960067795312494,0.0
mp-23856,H1Li1O1,-1.6695467701388882,0.0
mp-757089,I1Li1O4,-1.102277532222222,0.034620046458334386
mp-540925,As1F6Hg2,-2.025906078055556,0.0
mp-600007,O2Si1,-3.0248817944444446,0.0
mp-753345,Ba2Ca1I6,-1.9700986666666662,0.006904217777777709
mp-556697,Bi2Ca1O9Ta2,-2.8576376295535724,0.0
mp-14088,F6Pd1Rb2,-2.3106991397222223,0.0
mp-679969,C1Cl3N2P1,-0.6435639555739792,0.046038957114506625
mp-775278,Li2Mn1O8V3,-2.426966807471264,0.00892360272369024
mp-29185,F2O3Te2,-1.8667011670833336,0.0
mp-27650,B10H9Rb1,-0.2709383251458327,0.0800633511780298
mp-12459,Ag3P1S4,-0.2556438824032732,0.0
mp-626259,H3N1O4,-0.9886900321874998,0.0
mp-2514,Mg3P2,-0.804878716690476,0.0
mp-561050,Ba1Ca1O4Si1,-3.346499291785714,0.07035943767885351
mp-30236,As1Se2Tl1,-0.48065228278645833,0.0
mp-767140,O7P2Sn2,-2.329495370616882,0.0
mp-760401,F1Nb3O7,-3.017386354090909,0.032026563749940735
mp-1019719,B1Cs1O6Si2,-3.0508567975071843,0.0
mp-19078,Ba2O6Sr1W1,-2.9646106874999987,0.0
mp-706328,Ba3Dy1Fe1O9U1,-3.0492926256111095,0.16363477316635955
mp-758587,Cu1Li2O4P1,-2.29514898485119,0.04814798843522272
mp-12978,O2Sn1,-1.870813386666666,0.0
mp-556661,C1O7Si1Y2,-3.2927375001893933,0.0
mp-556738,Ba1F6Zr1,-4.136798602187499,0.0
mp-28111,K3N1O3,-1.0826058942857142,0.0
mp-752452,Mg3O11Te4,-2.014217999953703,0.073173812812288
mp-559330,B14O25Sr4,-3.04315429501938,0.0
mp-607818,Ge1Rh1Te1,-0.49329858055555437,0.0
mp-560642,Na3O9P2Sb1,-2.4721618360047892,0.0
mp-757450,Ge2O7Sc2,-2.9553562614772715,0.014927847424238715
mp-7492,B1La1O3,-3.5043491223333363,0.0
mp-753226,Ag1O2Sm1,-2.542445634791666,0.0
mp-556623,F4K2O1Ti1,-3.419743465697916,0.0
mp-561518,As1Bi1Mg2O6,-2.31862733775,0.0027103732133973322
mp-675132,In1K6P3,-0.32613691729999983,0.0
mp-18673,Cs1O4P1Zn1,-2.4963465416091952,0.0
mp-31112,Ga1O6Tb3,-3.4887673205,0.0
mp-777470,F3Fe1Li1,-2.608774637166667,0.01993637349570001
mp-600016,O2Si1,-3.025217658541667,0.0
mp-772563,F3Li2O2V1,-2.737292186145833,0.08929983687484011
mp-569639,Cl1Tl1,-1.324002141666667,0.0
mp-558538,F1Ho1O3Se1,-2.8197061176822924,0.0010971916668000385
mp-7548,Ba1Se3,-1.3912777380078123,0.004225005351561784
mp-608653,As2Pb2S5,-0.5825856674305554,0.004324741666664029
mp-761219,Na8O6Ti1,-1.9610227116245207,0.0605999194999832
mp-766486,Cu1Li1S2,-0.6449300912630189,0.06872055604167682
mp-776018,O3Sr1Ti1,-3.4151526450000023,0.0
mp-1745,O3Sm2,-3.7446453369999992,0.0
mp-3074,Ag1K1O1,-1.025817032972218,0.0
mp-27990,B2H5,-0.17927501726190442,0.0
mp-23303,Br1Rb1,-2.0153630037499997,0.0
mp-582968,Bi6Cl7,-1.0205639989423076,0.0042353622756419185
mp-559019,Br1N3Nd6S4,-2.0931971885714282,0.0
mp-755293,O1Sb2Sr4,-1.7241474982142841,0.0
mp-771147,Dy2O13P4,-2.954439426416039,0.005572241578916922
mp-772809,C1K1O7P1Sn1,-2.2760845495530293,0.029560834318068562
mp-772910,Bi3I1O4,-1.5330029415625015,0.008987700195762338
mp-770959,Ba3Ge1O5,-2.828754712824075,0.0
mp-19033,O3W1,-2.1803868643749995,0.0
mp-768522,Ce2La2O7,-3.6606495285227254,0.009817909545459842
mp-555166,Ag2Ba1S4Sn1,-1.0096492585416659,0.0
mp-1017988,Ca1O2Sr1,-3.0552610675,0.04889010999998389