Material ID,Compound,Energy,Hull Distance
mp-530984,Al22O34Pb1,-3.3500031157456136,0.011947075701810587
mp-560189,B1Li2Na1O3,-2.4652458812089484,0.0
mp-769532,C4Na4O16S1V2,-2.080782445852491,0.0
mp-585266,Mn1O7P2,-2.31223617033477,0.0
mp-23550,Br1F4K1,-1.7452011922916668,0.0
mp-675436,O7Sm2Zr2,-3.6667002873863628,0.036643032869329
mp-555159,O3Pr2,-3.6040135643333313,0.0
mp-767279,C1Dy1Li2O7P1,-2.7836366528125,0.09409996541674441
mp-15939,Al2B2O7Sr1,-3.2643983646874997,0.0
mp-1018097,Ba1Ca1O2,-2.863193381249999,0.05426961374998429
mp-530429,F15Y1Zr3,-4.109718102236843,0.0
mp-554371,B1Ca1H1O5Si1,-2.9301683769907405,0.0013432616502322661
mp-753794,Hf2O9P2,-3.192552773150182,0.0
mp-567777,Br3La9Sb16,-1.2432153139285715,0.0
mp-669357,Cd1I2,-0.8606359894545458,0.0
mp-21560,As2Cu1O7Pb1,-1.572354798749999,0.025884209772729993
mp-626721,H1O1Rb1,-1.4125191099999992,0.0
mp-18838,F3K2Mn1O4S1,-2.517301849505095,0.0
mp-12262,Be1Cs1F3,-3.407359109931035,0.0
mp-16934,Al1Ba1La1O4,-3.517725240357143,0.010298913943362973
mp-559931,F3V1,-3.222053674375001,0.0
mp-567702,Cl4Cs1Re1,-1.2860807556944438,0.019576845069438836
mp-23008,Br1F1Pb1,-1.8898837091666632,0.0
mp-30979,Ga1P1S4,-0.5058564702876988,0.0
mp-557498,Au1Bi2Na1O5,-1.4254108294779693,0.0
mp-33432,Fe1Mg1O2,-2.1085580871428573,0.182585063750194
mp-4971,K4Se8Sn3,-1.0379901068499995,0.0
mp-768961,B5O9Y1,-3.0425734539166664,0.00044182244444688953
mp-14871,Li16N8O1Ta2,-1.058232964151234,0.0
mp-600051,O2Si1,-3.024145022916667,0.0
mp-18101,Cd3K2S4,-1.0089438506944441,0.0
mp-696949,H1Li3O4Te1,-1.9428430707407405,0.0
mp-555482,F5H2K1O1Zr1,-3.0460788004750006,0.0007187746179656785
mp-771074,Cr1Li7O6,-2.0715090223809516,0.0573342803571408
mp-775216,Li1O5Te1V1,-1.9870279998437503,0.000826181405816584
mp-7249,Ba3Nb2O9Zn1,-3.072072784583334,0.0
mp-12287,La3Nb1O7,-3.5683237927272713,0.0
mp-559067,Au1K1Na2O2,-1.3233452114339077,0.0
mp-757375,O10Sn3Ti2,-2.6246867509444445,0.04094499799992567
mp-29934,Ag7F31Zr6,-3.1326166396401516,0.0
mp-770676,Cl5Cr1H8Li2O4,-1.4794726460833332,0.0408664695281983
mp-504935,K2O3Pb1,-1.5577327753333314,0.0
mp-7499,S5Sn2Tl2,-0.6670838215740775,0.0008346581944427771
mp-23930,C1H4N2S1,-0.3841745306250006,0.0
mp-772633,O4Sc2Sr1,-3.6388111654761905,0.0
mp-772659,Cr1Li3O4,-2.0884392453124994,0.0
mp-570755,K1N2Ta1,-1.1355535187083348,0.0
mp-3884,Ho2O7Sn2,-3.031011951022727,0.0
mp-766303,Ba2Ca7I18,-1.8907302562962964,0.0721569068518522
mp-12265,Cu1F4Sr1,-3.0346254849999994,0.0
mp-560121,C1H5N1O3,-1.1550306866249997,0.0
mp-560515,Cl10K4O1Ru2,-1.6956758574411757,0.0
mp-10784,Er1Rb1Se2,-2.0086555156770842,0.0
mp-770871,Cr2Li6O7,-2.156681591083333,0.04346370633333265
mp-769868,Bi1H8Li3O7,-1.524824657236842,0.04523242432326407
mp-558628,B1K1Li2O3,-2.4621025528690477,0.0
mp-764460,Fe11Na5O16,-1.651002961465517,0.016780837187478026
mp-559092,F3Sc1,-4.2176908581250006,0.0
mp-771165,Dy2O5Ti1,-3.841304531197917,0.0
mp-17965,Ga1K1Te2,-0.9034295795208331,0.0
mp-17812,O4Si1Sm2Te1,-3.2707633877083344,0.0
mp-23356,B2Bi4O9,-1.8212629573333288,0.0
mp-558073,F11I2Sb2Se1,-2.2043783917089845,0.00030891551697509456
mp-36465,Al2Fe1O4,-2.8369330071428567,0.0
mp-540839,Cs1I3Pb1,-1.295464193931037,0.0
mp-764245,Mg7Mn5O12,-2.5668797635272984,0.027943849166986705
mp-772568,Cr4Li2O13,-1.6449090493421052,0.013997742171054628
mp-676311,Nd2O7Zr2,-3.563525928636365,0.009150153806851852
mp-541629,Ba1F5Ga1,-3.474867186071428,0.0
mp-772055,Li6O7Ti2,-2.7365455535555565,0.011646225333314438
mp-28679,Br4Ga1Na1,-1.3461854937499993,0.0
mp-14213,Ge1P4Sr4,-1.118488307850528,0.0
mp-27830,Cl6Cs2Se1,-1.5654938298006467,0.0
mp-559446,Na1P1Pd1S4,-0.849608650146023,0.0
mp-767039,O13P2Sn8,-1.9838706324689441,0.02445278478258588
mp-759450,F1O7Sb5,-1.77245762625,0.052667793124977234
mp-757280,As6Ba2O11,-2.067035785328948,0.0
mp-16183,B2Se7Tl2,-0.5308594496732956,0.0
mp-767605,F5Li2V1,-3.1736949636458336,0.0065138908332991186
mp-680443,K4Pb9,-0.23147775511893087,0.013248697733517077
mp-22909,Cl2Zn1,-1.5568997900000001,0.0
mp-771123,Fe1O3Sc1,-2.776932480833332,0.04372020874997133
mp-762852,F2H12Na2O11P2,-1.8308065922256669,0.0235466985123936
mp-4051,Al1O4P1,-3.116571794107142,0.0
mp-705312,Fe1Li1O4P1,-2.4645052754761902,0.0
mp-755881,Ba2N2O11Ti6,-3.190483499642857,0.018898314195976155
mp-504937,Cl7Sb1Se9,-0.3189416156801465,0.005520479338235518
mp-752535,In3O7Ta1,-2.1816843753257573,0.0978307390909101
mp-19408,Li1O5V2,-2.426129368541666,0.0
mp-676002,Ba2F7Pr1,-4.218520273249999,0.04481124550003699
mp-703312,H4O5P1Rb1,-1.9212223499675316,0.017721835909117477
mp-2604,Mg1Te2,-0.8494175952777757,0.00717069666666692
mp-28549,Li8O6Si1,-2.4355481049444445,0.0
mp-32645,S3Sm2,-2.35055749725,0.0
mp-776268,Li5S4Sb1,-1.2143324247916667,0.051351565499990134
mp-626791,H1O2V1,-2.0724305484375005,0.0
mp-504962,In1K2Na3O4,-1.658267081315517,0.0
mp-23146,Cl1O4S1Tl1Zn1,-1.7734626829947917,0.0
mp-651707,O2Si1,-3.033958616190477,0.0
mp-21525,Pb1Rb1,-0.2171420265624997,0.0
mp-18219,Dy2O4Se1Si1,-3.4089600918554694,0.0005687197002011146
mp-769605,Cr3Li4O8V1,-2.420480962708333,0.0
mp-504630,Cl1In1Te1,-1.010159500972222,0.0
mp-776146,Fe1Li2O8V3,-2.3521716792261893,0.010685878943657912
mp-559498,Bi5K9O13,-1.687612004175926,0.004975007500002941
mp-6485,Ag1La3Se7Si1,-1.7192688465060766,0.0
mp-12233,B4O7Zn1,-2.459238244895834,0.0
mp-29582,Cl4Cr1Li2,-1.663449338999996,0.037616759920634735
mp-561196,S1Zn1,-0.9619825028348227,0.0
mp-542826,Pb1Sc2Se4,-1.5743093055356943,0.020659551785715484
mp-771304,C1Li3O7Sb1Si1,-2.3285057288461535,0.09147080259620265
mp-755650,Gd3O6Y1,-3.7037314888124997,0.01818162725000221
mp-555109,Nb1O4Tm1,-3.5807900541666675,0.0
mp-558967,K3S11Ta2,-1.1973475845859376,0.0
mp-600050,O2Si1,-2.981372023472223,0.0
mp-2691,Cd1Se1,-0.8556127261718744,0.0
mp-763740,Fe1Li1O4Si1,-2.498611469047618,0.001767453928728965
mp-1019537,Al1Ba1N5O3Si4,-2.0698585118749997,0.03680411867147017
mp-758997,C1Cu1Li1O3,-1.6331369038888885,0.04289334979173157
mp-1013878,Li1O13P3V3,-2.6689726409880947,0.01275712498094279
mp-554782,Ga2Ge1Li2S6,-1.0746378804924241,0.03607652755682089
mp-541214,K1O3S2,-1.7030500970416664,0.010576431793354915
mp-769464,La3Li1Mn1O7,-3.203075601772031,0.0
mp-27761,F7Li3Th1,-3.5672097225000003,0.21047319102270798
mp-758337,Ca2O17P6,-2.85731168055,0.0
mp-24662,H10Mg3Rb4,-0.32949553720588237,0.0
mp-706670,Al1Cl1Cu1H28O22S2,-1.4458539100909094,0.006537536138329032
mp-553278,Nd4O4Se3,-3.0572841724715905,0.0
mp-560875,Ge4K2O9,-2.1725340574277774,0.005662056310985027
mp-23326,Ca4Cl6O1,-2.775097219545454,0.0
mp-768812,B2Bi1Li1O5,-2.4234166622685183,0.044938826246124504
mp-31488,Li3Nb1O4,-2.7149454259374997,0.0
mp-767521,C1In1Na2O7P1,-2.3157243729322303,0.0
mp-557232,K1O3Pd1Sm1,-2.3027548898750005,0.02276864072872975
mp-762279,K2O17Ti8,-3.3748133611635804,0.009109656481499499
mp-775287,F19Fe10O1,-2.5253692788750004,0.013952539379561793
mp-29194,Au2Cs2Se3,-0.7931616788839294,0.0
mp-555704,F3O2Re1,-2.0282235300000004,0.0
mp-5416,Na2O3Se1,-1.6012085731770835,0.0
mp-7594,Cs1F2Li1,-3.0222655647916667,0.0
mp-707095,H1O5S1Y1,-2.5230852778125,0.0031134087502233676
mp-754761,Hf1O4Sr2,-3.5031191917857165,0.006370877500080395
mp-554206,Al2As2Cs2O7,-2.499954688985411,0.0
mp-3595,As2Si1Zn1,-0.2758698662499999,0.0
mp-545659,Ba2Bi1Dy1O6,-2.83205356925,0.0
mp-755353,N2O11Sr2Ti6,-3.1882382061706354,0.025088564774547097
mp-554328,Na1O4S1,-1.7381624657794539,0.07461933281247941
mp-27292,As2F12Hg3,-1.9636013948529396,0.0
mp-570423,Ba6I19Pr3,-1.9879391194642844,0.0
mp-619775,C2I12N1Y7,-1.5780711964393945,0.0
mp-540881,Ag1Cs2I3,-1.3792691024999992,0.0
mp-571458,Ge1I3Rb1,-0.9214390742499973,0.0039461440000035704
mp-686042,B2O7Zn4,-2.1275492543269228,0.08999360923076037
mp-559366,Br1F1N1P1,-1.1924816440252985,0.014782399791635648
mp-616135,Cs5P3Si1,-0.43852297999269907,0.00115927329821207
mp-758054,Ag1F4Li1,-1.948319448333333,0.0
mp-18744,Er1Mo1O6Sr2,-3.111079587999998,0.0
mp-23059,Cl6Rb2Sn1,-1.888469903333333,0.0
mp-3887,Ga1Li3N2,-0.651991903125,0.0
mp-770833,B1Li2O4Sn1,-2.3341779129166653,0.07121977065661156
mp-541368,O7Tl4V2,-1.8205298612179535,0.0
mp-27669,H1N1S3,-0.025195961999999385,0.07812058424413823
mp-4394,O7Pr2Sn2,-2.79657135530303,0.0
mp-776461,Ba1N1Nb3O7,-2.8404520439583316,0.06439557708822068
mp-706910,B2H6Mg1O7,-1.9998667570052078,0.01963125164061852
mp-582767,Cu1Ge1La3S7,-1.8498466577083323,0.0
mp-558206,Bi1K9O24U6,-3.089901791175,0.0
mp-42054,Ba1La1O6Ta1Zn1,-3.1266900407333322,0.12026665700005701
mp-13654,Au3Sb4Y3,-0.9369433720000074,0.0
mp-768476,Li3S4V1,-1.2866087593749995,0.0
mp-619791,C2Cl9La5,-2.2302737473437517,0.0
mp-755071,O2Sn1,-1.8003376516666663,0.0
mp-5905,Be1O4Y2,-3.6941075397619048,0.029111085000027664
mp-6903,Ca4F1Na2Nb1O17Si4Zr1,-3.3644681823117812,0.0
mp-27342,F12Ge5,-2.289260117352941,0.0
mp-773359,Co1Li2O4V1,-2.1486208270833327,0.049934549061873224
mp-541114,F7Rh1Sr2,-3.2830756228333344,0.0
mp-542038,Er3F1O10Si3,-3.6020441465032538,0.005904394902139095
mp-676325,Bi7Nb1O13,-1.7795296932142868,0.12650752690475625
mp-753903,B2Bi2O7,-2.0210096463257567,0.07985493632565945
mp-675118,O19Th8Y2,-4.141728050603456,0.0
mp-772521,Li8O6Ti1,-2.375890426666666,0.004080712000005823
mp-773100,Bi1La2O5,-2.9309230065625007,0.06897368624990463
mp-755610,Ba6Hf1O8,-3.0931806399999995,0.06379378266666673
mp-22935,Br1Cs1F1,-1.9941986391666664,0.0
mp-684502,O10P3Sn2,-2.309863980428571,0.07836176608764542
mp-38843,Ca1O6Ta2,-3.3849953002777773,0.0
mp-626112,H7N1O6,-1.116160518571429,0.006402178749999773
mp-10985,Cu3Rb1S2,-0.5581437603124991,0.0011510650000001732
mp-686086,Sb1Te6Tl9,-0.43600642375000415,0.0
mp-632402,Ca1F8Li1U1,-3.767349779242441,0.025449056363660297
mp-768908,Ho2O2Te1,-3.248175030333331,0.0
mp-559822,Cl3La2O4Ta1,-3.3697324647333335,0.006110369390451354
mp-752895,Cu1F4Li3,-2.6331980343750008,0.08424514531241689
mp-674361,Li1Nb1O3,-2.8868796037666673,0.0
mp-762292,Li4O10V5,-2.4582275258333333,0.04607954861840899
mp-18812,Nd1O4V1,-3.2507920595833326,0.0
mp-24001,H1Na1O8P2Zn2,-2.357560245587027,0.0
mp-27295,Ge5Mg14O24,-2.797483922325582,0.0
mp-768094,C1Fe1Na2O7P1,-2.2368237862417892,0.0
mp-766664,Fe1Li1O4Si1,-2.5037614098809526,0.001767453928728965
mp-23942,H1K1N1O2P1,-1.831706289412698,0.0
mp-39387,F1Li1O6Sr1Ta2,-3.412042483636363,0.019904471130832168
mp-674297,N1Na1O3,-1.3587091845603445,0.0
mp-3248,As1O4Tb1,-2.8476050741666667,0.0
mp-19996,Ba2Gd1Nb1O6,-3.4163176084999995,0.0
mp-765484,H6Mn1O6S1,-1.4815701225754319,0.032453529352732345
mp-557933,O2Si1,-3.032389364444444,0.0
mp-557049,Cd1Cl1S2Sb1,-0.8854912299999995,0.00711887300000349
mp-5152,La2O5Si1,-3.77927138546875,0.0
mp-31417,Nd3O7Ta1,-3.6217355408939382,0.0
mp-6244,Cu1Ho1Pb1Se3,-1.2390036057552087,0.0
mp-561270,C2F1H4N1O4Sn1,-1.3329359901923068,0.05369825413490021
mp-559375,Cs1H6K1O10S1Te1,-1.6546428418035917,0.0
mp-706995,Cl5Co1H18N6Zn1,-0.7439808294354834,0.0
mp-628768,In4Se4Sn1,-0.6615013381249999,0.002123783055557185
mp-676684,Nb2O9Sr4,-3.2099183940277785,0.0
mp-767393,Li15Nb5O42Ti11,-3.0570360644406387,0.02588118637769856
mp-29483,Br3In1Mg1,-1.3963835224999996,0.011075971500067183
mp-770494,I5La1Mg1,-1.5509600421428569,0.014744466428569985
mp-6094,Ca2Mg1O7Si2,-3.377893931354166,0.0225927318750531
mp-542724,La1Nb1O4,-3.555324330833334,0.0
mp-559493,Cl7O1P1Ti1,-1.8383402204166668,0.0
mp-3521,B1F4Na1,-3.1401901304166664,0.0
mp-1020613,Ga1O4Rb5,-1.6406562899999977,0.0
mp-13744,Ga1O3Rb3,-1.830488295892857,0.0
mp-558769,F31Li4Na3Th6,-4.025666561420479,0.0091840530492365
mp-13974,Ho2O2Se1,-3.4769374658125,0.0
mp-10418,O2Rb1Sb1,-1.8650097262499998,0.0
mp-770416,Dy2O6W1,-3.3070034480092576,0.0
mp-540942,Cl7Dy2K1,-2.5007719866249998,0.0
mp-29417,Br6Na3Sc1,-1.933858892500001,0.0
mp-770386,Al1Li1Mn1O4,-2.5389960626806234,0.04507383607008413
mp-10219,F1O1Y1,-4.220189054305556,0.0
mp-10731,Ba2O6Pr1Sb1,-2.99022874675,0.0
mp-669521,Cl1Nb3O15Te4,-2.1863086126268123,0.007081772119736639
mp-773510,Cr1O10Ti1V2,-2.2663571327380945,0.09480939776706723
mp-558469,Ag2P1S3,-0.4269617254513894,0.0020139981727422076
mp-33551,Fe5Li1O8,-1.6360648002380955,0.041857984285723404
mp-560921,Al1As2Na1O7,-2.191776722398119,0.0
mp-6493,Ca1Mg1O4Si1,-3.365964663928571,0.0
mp-777477,F4Fe1Li1,-2.775763044722222,0.002276242685136154
mp-22994,I1Li1O3,-1.0900044433333336,0.0
mp-7656,Ga1Na5O4,-1.8032809389396547,0.0
mp-705900,Hf3Mo12O48Pb1Tl10,-2.146270532567569,0.0
mp-772025,In3O7Ta1,-2.179104199643937,0.0978307390909101
mp-625812,H2O3Sr1,-1.035670273181819,0.3125125097916695
mp-558195,B2Ba2Cl1Ho1O6,-3.331798841319445,0.0
mp-556030,Ba1C1Cu1F2O3,-2.4492047124999994,0.015889108124619078
mp-17344,Cu3Er2Rb1S5,-1.4696339189204546,0.0
mp-29459,Br9Mo2Rb3,-1.5015158501785717,0.02069130625000096
mp-752429,O3Sc1Tl1,-2.4583451419166673,0.07975113937488772
mp-554605,Cl3F2Rb2Sb1,-2.2938417725,0.0
mp-761036,Cd1O4Se1,-0.9932367540104169,0.0
mp-776076,Ba1O3Si1,-3.3625117112499994,0.0
mp-762311,Cl4H12N4O3Zn1,-0.8907721605729163,0.09491809225908154
mp-752724,Ho2O5Ti1,-3.7032059283333147,0.0
mp-554159,Be1Li2O4Si1,-2.9647569170833323,0.0
mp-755652,Dy3O7Ta1,-3.761561672939391,0.0
mp-23526,Cl1K1O4,-0.7129806231249999,0.0
mp-27583,O17P6Sr2,-2.6063815065142855,0.0
mp-19376,Mn1O3Ti1,-2.915703313252873,0.0
mp-556125,B1H1Na2O3,-2.1816957222393265,0.0
mp-774810,F1H1O3P1Rb1,-2.4908697997704086,0.0
mp-772748,Ba2O17P6,-2.8477009539499996,0.0017372513997997885
mp-776726,F7Li1V2,-3.0865331050833333,0.011098651396364545
mp-1019511,Al1O4P1,-3.092545897023808,0.0
mp-5737,Cu1S2Tb1,-1.60478658140625,0.0
mp-580589,Cl6Cs2Er1Na1,-2.504479942241379,0.0
mp-556051,Ge1O3Rb2,-2.077025212291667,0.0
mp-600033,O2Si1,-3.0284417797222227,0.0
mp-765230,F3Li1O1V1,-2.979252593263889,0.006431431706131363
mp-769778,Ca2In2O5,-2.4179162144444413,0.0571948025000112
mp-570306,Ga1I4Tl1,-0.8836090876388925,0.0
mp-559663,F6Li1Ni1Sr1,-2.992021458333334,0.0
mp-771387,C4Li6Mn2O16S1,-2.128986775633175,0.05046368807059922
mp-633099,O7Pb2Sb2,-1.5526666445454524,0.013953643366361361
mp-707775,B5H5K2O11,-2.291272628438405,0.015777189228596084
mp-555349,C1La2O5,-3.0733287251041665,0.0
mp-764595,Na2O5V2,-2.2918212841954024,0.07100576647221384
mp-759786,Na2O15Ti7,-3.3257204124413327,0.01006744760403618
mp-28921,Br1Se2Tl5,-0.6922210820442709,0.0
mp-684591,Al2O3,-3.29858316475,0.0
mp-33667,Dy1Li1S2,-2.1121262418229154,0.0
mp-769511,Li1Na1O6V2,-2.383794987721264,0.0
mp-16596,Ho1K3O7Si2,-3.0792592932756415,0.0
mp-643727,Br1H1O1Pb1,-1.3903812559374993,0.0
mp-695955,H11N4O9P3,-1.3941779288425928,0.08432962123018255
mp-771977,As1O4Tm1,-2.8624164394444436,0.0
mp-603633,H8N2O13P4Sn1,-1.8629244193239793,0.010361799644129326
mp-672341,F6U1,-3.481720340357145,0.0
mp-7206,Ag1O4Tc1,-1.2766422508333335,0.0
mp-643385,H1I1O1Sr1,-2.1302303853124998,0.0
mp-754140,Ca1O3Se1,-2.2957627277187505,0.0
mp-689940,Co1O4P1,-2.085924790357145,0.0
mp-766175,B1H1In1O9P2Rb1,-2.517200944757936,0.0
mp-38089,Mn4Na10O9,-1.640541944696401,0.013934128913032912
mp-557911,Al3F19Pb5,-3.1947927208333335,0.0019431151388442072
mp-4967,Mg1O4S1,-2.4071368401041657,0.0
mp-773024,Ca2Li1Nb3O10,-3.1469864573958333,0.028287875937535567
mp-769365,O4Se1Zn1,-1.3044270312239572,0.0
mp-1175,S3Sr1,-1.1794267808593748,0.0
mp-29936,I6Pd1Rb2,-1.049157330833336,0.004336184722222451
mp-760402,O4Rh1Ta1,-2.3896658875,0.014292613541665666
mp-540949,Ba3Nb2O9Sr1,-3.264526898027778,0.0
mp-16819,O3Te1Zn1,-1.633436781333333,0.0009172938043004563
mp-772141,Ba2I7La1,-1.9728928032500002,0.025019845500000314
mp-28730,Cl9In7,-1.0225791031250004,0.0
mp-27741,Au1I1Te1,-0.4223846355555552,0.0
mp-567478,Br1Mn1Sb1Se2,-0.7656143655237073,0.006556606999998227
mp-19965,Ba1K4O12U3,-3.2041527374499976,0.015053235749942218
mp-756721,Bi5Na1O8,-1.6474014465270892,0.03118015571430074
mp-697815,Cr1O4P1,-2.1052737206060614,0.0
mp-752420,Ba3F12Y2,-4.2896994079411765,0.019966394117680447
mp-2653,B1N1,-1.3182748731250022,0.0
mp-554704,H1O5P1Ti1,-2.763841915989584,0.0
mp-570610,Cd1I2,-0.814438609230767,0.0
mp-755428,Cl1O1Rb3,-1.5143579787500001,0.0
mp-29910,I6O1Sr4,-2.237208976363635,0.0
mp-542115,Hg3O10Se3,-1.0193402743457032,0.0
mp-776641,Co1Na5O4,-1.4755332561896553,0.004226379499989719
mp-561424,Al1F4K1,-3.6533316138333336,0.0
mp-4376,Al1Ba1F5,-4.034574897857143,0.0
mp-30292,N2Nd4Se3,-2.03018731329861,0.0
mp-569168,Ba6Cu3Na1Te14,-1.2384387574952107,0.0
mp-769045,Ga1Ho1O3,-3.1657860683333325,0.01931251253336086
mp-209,Er2Se3,-2.1738531932708325,0.0
mp-19172,K1O8V3,-2.358981176437498,0.0
mp-767572,F5Li2Mn1,-2.935507089012213,0.0
mp-1018141,Ba1C2,0.17608536833333233,0.14810021000000065
mp-766023,Cu2Li2O11Si4,-2.5838512460087717,0.08250018657906896
mp-560936,Cr1F6Na1Rb2,-3.117798399137931,0.0
mp-560098,O2Sb1,-1.5521958554166677,0.0
mp-28395,B6P1,-0.3262236497108851,0.0
mp-765721,Na4O8V3,-2.2600922410344824,0.09676918664998387
mp-569346,Cu1I1,-0.26140214999999856,0.0
mp-17650,Ga1K1S2,-1.2984356232499996,0.0
mp-769460,Li9Mn12Ni3O32,-1.961634923485222,0.003549804676391131
mp-560468,Br1Pr3S8Si2,-1.8242970885714291,0.0
mp-775335,Cr3Fe1Li2O8,-2.1066178444047616,0.0408343836150714
mp-28534,Br3Ca1In1,-1.7607703079999992,0.0
mp-3731,Li1Nb1O3,-2.900281027916667,0.0
mp-569267,Ca2Cd1Sb2,-0.9500528430000003,0.0
mp-16795,Al1Ca1F5,-4.0094273975,0.0
mp-541569,Li3N4Sr2Ta1,-1.0581757104833336,0.0
mp-583553,Cl14Mo6Pb1,-1.3883896355952392,0.0
mp-756912,B1Li1O3Zn1,-2.3773357052083335,0.008390397083413603
mp-604459,B4H4Li2O9,-2.316960190372807,0.009904934188832135
mp-557900,C1Cl2F9S1Sb1,-1.9930247342857146,0.037414956043055066
mp-560297,Li1O5Si1Ta1,-3.191898048833334,0.0
mp-16184,B2Rb2Se7,-0.8198785858854181,0.0
mp-505815,Cs1Cu1La2Se4,-1.8202700205037718,0.0
mp-766881,H7I1O10S1,-1.2053471613815787,0.020160814144742887
mp-569813,Ag1In5Te8,-0.43229448250000196,0.0
mp-552056,C1Cl1O2Pb1,-1.5881746360000009,0.050364523437497866
mp-753649,C1Li1O7P1Zr1,-2.7512731139069255,0.052755472499983955
mp-769036,Li8Nb2S9,-1.3700625371929818,0.04324399222150121
mp-3503,Li6N4W1,-0.9521768727272734,0.0
mp-634434,C1H1N2Na1,-0.4235811373103445,0.036035926333333634
mp-561356,Cs2O9P2U1,-3.0092850225913392,0.0
mp-772417,Fe5Li4O16V3,-2.0690797958333342,0.06464157215764743
mp-643,O2Th1,-4.2402188066666655,0.0
mp-24058,Ag1B1F4H2O1,-2.011016009027778,0.0
mp-754184,Al1Er1O3,-3.6963129842500004,0.017959491249956726
mp-5679,Cd1O4S1,-1.5497149021354157,0.0
mp-14001,As4Ba4Si1,-0.9948720494444458,0.0
mp-758070,Cu2Li1O4P1,-1.830337633497023,0.09721506593559304
mp-760690,Li8O6Te1,-1.9676749492222219,0.08572195633334019
mp-628951,O9P2V2,-2.5739649447527455,0.01575240917097668
mp-675426,Ba3F9Pr1,-4.185267147243591,0.054317897307709126
mp-559702,Cl2O7Pr2Ta2,-3.4256531061923075,0.0
mp-558226,H2O1,-1.0426851086111109,0.0
mp-558831,K1Nd1O3Pd1,-2.274440903708333,0.014636564757465997
mp-23803,Ga1H1O2,-1.88450002,0.0
mp-769287,Li2O1S2Ti1,-2.010923812916667,0.02771199260796416
mp-18901,Ag1Hg1O4V1,-1.4028851520238095,0.026404143214285827
mp-770703,Li1O6Sb1W1,-2.0705514320370364,0.036754099444433704
mp-559257,Ag1O3Te1,-0.8509419729999991,0.0
mp-558042,Cu1S7Sm3Sn1,-1.724619707291667,0.0
mp-5488,In1Li1O2,-1.9766470104166665,0.0
mp-27484,O1Tl2,-0.6799623099999982,0.0
mp-505121,Hg3Na2S4,-0.6981867725287378,0.0
mp-5065,Al2O5Si1,-3.3562789279687495,0.0
mp-769604,C1K2Mn1O7P1,-2.3270950367511976,0.0
mp-774749,Li12Na3O16Rb1Ti4,-2.5503552779976864,0.0
mp-24354,H7N1O6Se2,-1.0592832942773445,0.04836171087419272
mp-643702,Cs3H5Zn1,-0.3189151398611124,0.0022366991666666397
mp-14817,O14P5Pr1,-2.57220909795238,0.0
mp-24341,Be1Cs1H3,-0.173398749750001,0.0
mp-762307,Ho1O12Y7,-3.978639724583334,8.997369738068528e-05
mp-32531,Ba2O9V3,-2.817756389821428,0.007414093571354792
mp-554185,Al1O4P1,-3.1074070770138884,0.0
mp-16929,N11Pr3Si6,-1.5318525178124986,0.0
mp-5777,Ba1O3Ti1,-3.4925271839166663,0.0
mp-557016,Cl5P4S6Ta1,-0.9898502784940462,0.007296475173625527
mp-698690,Ca1Ga1Na1O7Si2,-2.3620268858584765,0.0050544469740501086
mp-11738,Na3O1P1S3,-1.4921949035975972,0.0
mp-505001,Br5Rb3Zn1,-1.7765191156944427,0.0030505910185182708
mp-24741,Cl3H3N1Sc1,-1.5716900485937506,0.0
mp-7703,Dy1O4Ta1,-3.594615386222223,0.0
mp-755026,La2O7Pt2,-2.15833294272727,0.0