Material ID,Compound,Energy,Hull Distance
mp-771342,Gd2O13P4,-3.1177574261622816,0.0006483132236904286
mp-23089,Bi2O9Sr1Ta2,-2.8422090655119043,0.0
mp-768734,Ca1I6Sr2,-1.9078123256481478,0.02224016625499677
mp-555356,Ba13Dy8O37Pt4Zn4,-2.836826973996212,0.0
mp-757911,Al10Mg1O16,-3.388350680925925,0.021145170370361285
mp-17404,O7Si2Y2,-3.644960354545454,0.0
mp-760226,F5Nb3O2,-2.8841739395000006,0.10360076347217131
mp-622203,Ba1F7Ga1Mn1,-3.351405425293103,0.0027059585002653817
mp-625055,Al1H1O2,-2.594942804062499,0.0
mp-29312,I2In1,-0.7163803695833337,0.0
mp-555080,C1F1H7N3O3P1,-1.1998336631808026,0.01263828040840953
mp-763249,Co3F5O1,-2.082312097361111,0.0339403854166886
mp-772267,Al1Fe1Li2O4,-2.494226615833333,0.016841030938335333
mp-568350,Cl4Rb2Zn1,-2.0160822213095235,0.0
mp-568289,Cd1I2,-0.8711707511111114,0.0
mp-570589,Br1Se1,-0.3958904536718748,0.004205195292968908
mp-29612,Eu2I5Rb1,-1.8672555381250007,0.001971439062500302
mp-5746,Mg1O5Te2,-1.9389514588541656,0.007509117890889039
mp-15416,As2Ga1Rb2,-0.47611271475000017,0.0
mp-758933,B8O1,-0.564966203333334,0.022105645925922148
mp-754960,I1O1Sm1,-2.997362365833333,0.0
mp-28038,Br3Nb1Te1,-1.2255210203333342,0.0
mp-761252,F1H3O4P1Rb1,-2.1377253250833332,0.0
mp-761156,La5Li3Nb2O26Ti6,-3.4580787773809525,0.056483607202271933
mp-7472,Au1O2Rb1,-1.13686731,0.0
mp-570957,Cs1Si1Te3,-0.7229955770862062,0.0
mp-561075,Cd1Na2S4Sn1,-1.0364807175754311,0.0
mp-18964,Cr2K3Na1O8,-2.054672312896552,0.0
mp-530852,Mg2O4Si1,-3.0792620407142857,0.0
mp-556745,C1O2Tl1,-1.4119357402083335,0.04144182273437158
mp-6557,Cs2F1O3P1,-2.75504917506363,0.0
mp-559904,Li3Na1O4Si1,-2.6264509004310344,0.0
mp-559562,Ag1N1O5Te1,-0.9830034824479164,0.004984251093749226
mp-29750,Br3Cs1Mg1,-2.032145840586207,0.0
mp-771235,Cs1La3O5,-3.2987720090277812,0.040413902222268976
mp-557529,Na5O10P3,-2.605751092268076,0.0
mp-752449,B4La2O9,-3.2933686972777783,0.008098738800014379
mp-4541,Cu1Na1O2,-1.19009242,0.0
mp-775754,Co3Li4Nb3O16V2,-2.3354725440476187,0.12033828064632703
mp-626201,Cl1H5O6,-0.9377530331250004,0.0024429286458316213
mp-31314,K2P1Se3,-1.048984686862352,0.0
mp-28455,Hg2O7P2,-1.9746790916287877,0.0
mp-775735,C1Co1F5O3Sr2,-2.9191051379166666,0.025014987742868772
mp-771956,O7Tb2Zr2,-3.8212020119318173,0.07181742644892805
mp-11661,N4Zr3,-1.7916726607142854,0.0
mp-3924,Li1Nb1O2,-2.684231572083335,0.0
mp-777677,F4Fe1Li1,-2.7807356534722225,0.002276242685136154
mp-557780,Cs1H1O5Si2,-2.7819173356561304,0.0
mp-772579,La2O6W1,-3.2747028575,0.0
mp-14388,Al5Ho3O12,-3.7064706420000006,0.0
mp-23535,Br4K2Zn1,-1.6758366310714297,0.0
mp-16597,Er1K3O7Si2,-3.083945567378205,0.0
mp-10798,Hg1O3Se1,-0.688412903312502,0.0
mp-1519,Ca1Te1,-1.9175140150000018,0.0
mp-768221,Bi1O3Y1,-2.783973834583333,0.03235554774992231
mp-755083,Ba1Cl5Y1,-2.7917308471428575,0.03578383428571742
mp-560647,Ca2Ge1O4,-2.9909550007142855,0.0
mp-627380,Mn1O4Re1,-2.209381224811913,0.05045877959399251
mp-767711,Li2Mn2O11Si4,-2.8866284600015124,0.010989232881012424
mp-754531,Al2O3,-3.316695117000001,0.0
mp-765656,Na5O14V7,-2.37511903981764,0.027689491634707616
mp-1001080,C1H2O3,-1.5214563039583335,0.003972218333331057
mp-29614,Eu2I5K1,-1.846292983406252,0.00893781125000026
mp-770886,Fe1Li3O3,-1.9691228758928574,0.04539324857142292
mp-760052,Hf2N2O1,-2.43406011975,0.0
mp-14134,Ga5Lu3O12,-2.991033893,0.0
mp-560809,O2Si1,-3.028880579861111,0.0
mp-28471,As1Li3S3,-1.0668014283482148,0.0
mp-7482,F3Hg1Rb1,-2.127970758250001,0.0
mp-12450,Li1Nd2O6Os1,-2.8160732823333334,0.0
mp-755370,Ba1N1Nb3O7,-2.8402915355208336,0.06439557708822068
mp-12317,C1N2Sr1,-1.0364008418750013,0.0
mp-27488,N5Ta3,-1.2867344263437523,0.0
mp-23904,Ba1H4O3,-1.7779577801562505,0.0
mp-558360,Al1As3Cl4S5,-1.0065209527403847,0.0
mp-505713,Cs1Se3Tm1Zn1,-1.6420037594381587,0.0
mp-756509,Ba1I5La1,-1.8921354678571427,0.026402626785713527
mp-541158,I7Nb3S1,-0.8510851438920471,0.0
mp-23036,Br6K2Se1,-1.35980371759375,0.0
mp-673808,Mg2O4Si1,-3.068659700714285,0.0
mp-755689,Cl1Er1O1,-3.5304285312500006,0.0
mp-768766,O7Sb1Tb3,-3.276893527272728,0.0
mp-36699,Ce2O7Y2,-3.7884873729545423,0.03936329318183208
mp-12492,Cd1Cs1Lu1Te3,-1.254433052988506,0.0
mp-753414,Lu2O7Pt2,-2.3216111966666646,0.0
mp-553945,O2Si1,-3.2566133048958332,0.0
mp-697789,Cr1Li1O7P2,-2.48342120319264,0.0
mp-33753,H1O3Ta1,-2.40728285946667,0.06735205474998303
mp-763186,Li2Mn3O8Sb1,-2.109749514318555,0.0
mp-1019596,Ce1O4Zr1,-3.730841830833332,0.043321864166657065
mp-304,Ca2Ge1,-0.6139391783333329,0.0
mp-600038,O2Si1,-3.0092093189999995,0.0
mp-625113,H8O6Pt1,-1.1270837405,0.04856876099999947
mp-22999,Cl1Hg3O1,-0.802495651785714,0.004451284833331038
mp-30161,C1N4Si2,-0.8067260317857148,0.0
mp-756725,Ba2Ca1I6,-2.0253618666666706,0.006904217777777709
mp-557519,Ca1Cr1F6,-3.2925873256250004,0.0
mp-19133,O4V1Y1,-3.285622310833334,0.0
mp-5927,Cs2Mn3Te4,-0.6863696305300167,0.0
mp-16032,O2Pr2Te1,-3.213549164999999,0.0
mp-13000,Ba2Ho1O6Ta1,-3.5877580897333323,0.0
mp-560233,B3Br1O9Sr5,-3.1808534402777777,0.004696131458882036
mp-560702,Ba1Hg1O5Ru1,-1.7414788541666681,0.0
mp-541628,Cs1F5Te1,-2.7509328424425283,0.0
mp-695545,Al3O48Ta1Ti9Zn23,-2.506050345920635,0.053004031994082504
mp-771908,F1Fe1Li1O4P1,-2.514699708340773,0.0
mp-765687,F1O1V1,-2.8479604083333334,0.0
mp-768230,O4Sm1Ta1,-3.644447450833333,0.0
mp-580748,Cl1Re3Se4,-0.5602605907812475,0.0
mp-768986,Bi1Li5O4,-1.9555561615416663,0.03995935787496485
mp-32022,Li1Mn1O7P2,-2.54693691924373,0.0
mp-558181,B1Na1O4Si1,-2.9153600786740563,0.0
mp-2168,Se1Sn1,-0.429399594531251,0.0
mp-29019,I1O1Rb3,-1.4115851076666663,0.0
mp-27353,Cl2F3Sb1,-2.045901167222223,0.0
mp-556301,Ca1Ce1Li6O6,-2.618339247678572,0.024583934523810518
mp-558895,Cs2F6K1V1,-3.1707083323862073,0.0
mp-764457,Fe1Na3O4,-1.5412316883297406,0.0024844852083352187
mp-505436,Cu1O11P4,-2.3313345238802086,0.0
mp-551816,Bi2I1O4Y1,-2.3332059227083333,0.0
mp-675645,Pb1S4Tb2,-1.8569671133333325,0.0622501417857266
mp-579637,In2K2Sb3,-0.41749398683333233,0.0
mp-1016830,Mg1O3Ti1,-2.9142600359166666,0.0
mp-545728,Bi2I1O4Pr1,-2.2821716262500003,0.0
mp-557146,As2O7Ti1,-1.8927049546666666,0.0
mp-13803,Hg2Nb2O7,-1.903246792727272,0.026491957840907722
mp-4445,As1Hg3O4,-0.8118178240625014,0.0
mp-557953,Hg3O6Te1,-0.9557911730416684,0.0
mp-673245,Cu1I1,-0.35998519124999984,0.0
mp-556996,Al1F6K2Li1,-3.465845342616667,0.0
mp-756526,B2Bi2O7,-2.0181822323484835,0.07985493632565945
mp-12177,O5Te2,-1.418776883869047,0.0
mp-541877,Cl9Ta1Te1,-1.5024255067272732,0.0
mp-29397,Pt1Si1Te1,-0.679879032638888,0.0
mp-1019891,K1O2P1S1,-2.1052693972250003,0.01020245185581956
mp-772664,As1C1Co1Na2O7,-1.8132877593211205,0.0
mp-3970,F6K2Ti1,-3.4960474065740734,0.0
mp-770818,Cu5Li3O4,-1.1515825437499998,0.08499416874996335
mp-773090,Cd1Nb6O16,-2.8559739167391296,0.07276102250000102
mp-23267,Be1Cl2,-1.5630070641666667,0.0
mp-12342,Cs1Nd1Te3Zn1,-1.3159624928591949,0.0
mp-752423,Na2O3Ti1,-2.737832141848658,0.00973782499988888
mp-556056,O1Pr10S14,-2.4628434209,0.0
mp-554553,Cu1Ho3S7Sn1,-1.6961132093229168,0.019223701666905235
mp-677055,Cu1Sc1Se2,-1.285297731093749,0.0
mp-20694,K2O3Pb2,-1.431272338928571,0.0
mp-14726,Na4O4Ti1,-2.4307662038378024,0.0
mp-557465,O2Si1,-3.248781854166666,0.0
mp-7262,As2Zn1,-0.22072702749999942,0.0
mp-560587,O13Rb2Sb8,-1.8126318077717396,0.0
mp-561433,C1K1O5Pu1,-2.628520883874998,0.0
mp-22734,Hf1O3Pb1,-2.842327871499998,0.00888730318748614
mp-559617,B2Hf1O5,-3.0900522668750003,0.0
mp-558636,Al2Ca1O4,-3.437556952142856,0.0006503210477052537
mp-15797,Er1Li1Se2,-1.9270027195052082,0.0
mp-1019560,B2Ca2O5,-3.0786410469444445,0.0
mp-541766,In1P2Rb3,-0.3182417651587297,0.0
mp-760134,Nb1O8Sb3,-2.1726350572916657,0.004592237661176076
mp-556320,Cs2F6Fe1Na1,-2.930617569741379,0.0
mp-754833,Hf2N2O1,-2.461421049750001,0.0
mp-29139,Au1Na1Se2,-0.7363943290598058,0.0
mp-5158,K1N1O3,-1.4195569664499992,0.0
mp-18318,O7Si2Tm2,-3.6779165630303026,0.0
mp-557961,C1Cl4N1O1Sb1,-1.0578230681250005,0.04320110118244869
mp-23151,Al1Be1Cl1Na4O12Si4,-3.001061325674663,0.0
mp-31263,Cl1In5S5,-0.7639603446875004,0.0
mp-1008677,O2Ti1,-3.2005788036111107,0.0
mp-555483,O2Si1,-3.032271110833334,0.0
mp-556023,Cl5Nd3S2,-2.6294846245000008,0.0
mp-763209,F1Li2O2V1,-2.6160600881944442,0.006646839166824255
mp-569557,Cu1Dy3Se7Si1,-1.5822751742838541,0.0
mp-29832,Se19Sm10,-1.977728083776939,0.0
mp-642822,C2Ca1,0.024557594999998617,0.015802891666666596
mp-40802,Ba1Bi1La1O6Sr1,-2.4938406124166663,0.06771697083898295
mp-30096,Be2Cl6Te7,-0.9212091887777769,0.0
mp-1019779,K2Mg2O7Si2,-2.927059254384614,0.03490105361133052
mp-754027,Na1O2Sm1,-2.9803434325000016,0.0
mp-695987,C1H10Mg1O8,-1.5618419815000002,0.0122114648750145
mp-557108,Ba2Nb2O10Te1,-2.856142273277777,0.0
mp-754769,O2Ti1,-3.4498924794444434,0.0
mp-18888,Cd1O6Sr2W1,-2.537717569499999,0.0
mp-757343,Bi6Ca4O13,-2.2492820072826096,0.0023691609784637162
mp-18317,Na5P3Sn1,-0.49068822988095284,0.0
mp-721876,Al1H5O9P2,-2.1933185956197474,0.01601864308824767
mp-18542,Nd2O4Si1Te1,-3.2734695370833338,0.0
mp-764428,Cr5Li12O16,-2.1433880969696957,0.09390965287851334
mp-758094,Ce6O15Y2,-3.7753979857608675,0.016979435652208223
mp-556974,B4Ba1O7,-2.9948421902430553,0.0
mp-772074,I9La1Sr3,-1.9229609798076928,0.03318684269230779
mp-556872,C1O2Rb1,-1.8903388462499997,0.0
mp-772412,Mg1O3Si1,-3.1397377071249997,0.005957224250073523
mp-571410,B1Cs1I14Zr6,-1.3256447222191745,0.0
mp-554529,Ba2O4Ti1,-3.3984363005952383,0.0
mp-764775,F1Li7O5V1,-2.3390196082738086,0.044732877678635576
mp-753413,B2Ba2O5,-3.134488071203702,0.0
mp-541758,Br12Se17Ta2,-0.8764562620917332,0.0
mp-23074,Bi1F1O1,-2.241859406666664,0.0
mp-763246,Co1Li1O4Si1,-2.2980800926190486,0.04657210197674796
mp-5503,Er1O4Ta1,-3.5971402934444447,0.0
mp-551741,O7P2Zn2,-2.4004130798106047,0.0
mp-695601,Al12Cl1H6Na7O48Si12,-2.9050472915797916,0.11485276736993315
mp-675543,Bi2Pb1Se4,-0.7207460099107144,0.0011907171428567104
mp-556950,S1Zn1,-1.0620897596874999,0.0
mp-29213,Cd2Ge7O16,-1.9972067900000001,0.0
mp-769564,C1Na1O7P1V1,-2.355892678047469,0.03838481659010769
mp-35769,F17Lu3Sr4,-4.372357097048612,0.0
mp-531201,Cd1Ho2Se4,-1.7129224651964263,0.010890775357140623
mp-765768,Co2F3Li1O1,-2.1764629542261913,0.04921708357131698
mp-23993,C1H4N2S1,-0.3534689018749999,0.0
mp-29266,Cs1S1,-1.1846206655280174,0.0
mp-27988,F7I1,-1.7005335934374997,0.0
mp-755759,O2Zr1,-3.7586261091666677,0.0
mp-540629,Al2Cl7Te2,-1.32282830340909,0.0
mp-777892,Fe3Li4O16Sb3V2,-1.9731197747619038,0.048755751181337716
mp-760418,Ba2I6Sr1,-2.0361928255555566,0.013791629444444453
mp-554845,Na2O3Zn2,-1.607965832857143,0.0
mp-559284,Al2B2O7Rb2,-2.98009724727564,0.0
mp-755362,O1Se2Sm2,-2.7862857456874996,0.010428071749983303
mp-4160,P1Se4Tl3,-0.42051894021577496,0.0
mp-1020147,Mg2N1Na2O9P3,-2.6785370290698345,0.0
mp-767162,F3Li2Mn3O4,-2.110929183996648,0.08955201863833355
mp-12236,Er3Ga5O12,-2.8581895871249983,0.0
mp-676108,Gd8O26Zr7,-3.681611731859753,0.10507285499999891
mp-758845,Ba5Nb2O10,-3.1509213292647056,0.006998818823488093
mp-27643,Cl6K3Mo1,-1.7960765828749998,0.002847132375010375
mp-288,Pt1S1,-0.6586349515625001,0.0
mp-552547,Bi1I1O2Sr1,-2.215145632,0.0
mp-555899,Li2O7Si3,-3.074679448055555,0.0015145822916243408
mp-756646,Lu2O4Sr1,-3.8255660016666657,0.0
mp-23041,I1S1Sb1,-0.6230523352083329,0.0
mp-696528,H3K1N1O3P1,-1.7199128350092592,0.0
mp-28247,I6K2Pt1,-1.0438371773333333,0.0
mp-770541,Mn2O5P1,-2.3523142013131153,0.0
mp-571190,Cl4Ga1Hg2Sb1,-1.0838531909375,0.0
mp-569786,Er2Pb1Se4,-1.7435586652678572,0.026870329285715755
mp-1154,C7Ho4,-0.2931484081818173,0.0
mp-556424,F3Rb1V1,-3.0360117110000004,0.0
mp-5587,Ba2S3Zn1,-1.9127145419791667,0.0
mp-18104,Na2S5Si2,-1.1950230312476056,0.0
mp-774193,La2O6W1,-3.300226634444446,0.0
mp-16595,Dy1K3O7Si2,-3.0757194781474313,0.0
mp-18115,Hg3K2S8Sn2,-0.784978218466667,0.0
mp-568696,C1Si1,-0.20341402160714292,0.0
mp-36262,Br1F1O2,-0.14882895437500032,0.0
mp-699151,H26Mg7Sr6,-0.4778553625641025,0.004108268076922883
mp-772883,Ba6I34Sr11,-1.9472324288235292,0.0786474787745057
mp-770586,Al1Cr1Li3O5,-2.5374040861249996,0.05070253749811258
mp-755333,Hg1O2,-0.034384917499999425,0.3771495304166666
mp-542445,F7K2Pa1,-3.80179534235,0.0
mp-570539,As7Rb3,-0.36133529887500015,0.0
mp-13725,Li3O4P1,-2.639203726622024,0.0
mp-676191,Nb3O24Sc11,-3.712202108815789,0.015892554078938678
mp-753826,Cu1Li1S1,-0.8829872671527781,0.00457404319444817
mp-777252,F4Fe1Li1,-2.7599367772222223,0.002276242685136154
mp-19218,Fe2O5Sr3,-2.379707482500001,0.08010522374991638
mp-755769,O2Zr1,-3.7627280591666667,0.0
mp-20066,C1O2,-1.7666272575000015,0.0
mp-3419,Au1F4Rb1,-2.0715147312499997,0.0
mp-559767,As1Li1O3,-1.951823910916667,0.0
mp-530294,O7Sm2Zr2,-3.797297421363639,0.036643032869329
mp-755546,Be1Na6O4,-1.7283857698432603,0.03496238613636167
mp-754429,Ca1O4Tm2,-3.808426619047619,0.02534589589285119
mp-18761,K3O8V3,-2.5397448268750002,0.0
mp-704848,O11Re2V2,-2.041616357000001,0.08382018861362847
mp-14787,S3Tm2,-2.3672358766874995,0.0
mp-768310,Bi1La1O3,-2.741158797499999,0.03472463674962256
mp-556287,Bi2Na1O11Sb3,-1.9071736971399589,0.0006050144117165581
mp-19261,C1Mn1Na3O7P1,-2.3578512282086015,0.0
mp-556362,Bi1Cl1O3Se1,-1.4659723728906247,0.0
mp-27985,Cl1O1Y1,-3.475545013472223,0.0
mp-29001,Cl4Lu1Na1,-2.369259266527777,0.0
mp-28627,Br2K4O1,-1.6809137085714292,0.0
mp-758203,Cl2O11Sb8,-1.6489017202976184,0.0
mp-626340,Ba1H8O5,-1.3459297387962963,0.0
mp-556290,F4Mg1Sr1,-3.9690347988888894,0.021782493888916694
mp-15275,Gd1Na1O4Ti1,-3.344617087126437,0.01505249464343653
mp-18767,Li1Mn1O2,-2.145225875941092,0.0
mp-18079,Ba1Cu1La1S3,-1.9668537523958338,0.0
mp-760425,O7Tb2Zr2,-3.8697289392045446,0.07181742644892805
mp-35512,Ag1Dy5S8,-2.1022132771428543,0.03341356508928633
mp-555012,Cl1La6N3S4,-2.1910685017857157,0.04961064053577096
mp-627944,H2O9Si4,-2.5880185666111157,0.04320918749999976
mp-546621,Bi2Br1Er1O4,-2.4472303981250008,0.0
mp-28837,Cl6K3Rh1,-1.6484629801249995,0.0
mp-555186,Li2S4Sn1Zn1,-1.1501380311458331,0.0
mp-556475,K1La1O3Pd1,-2.321330290791666,0.007409765144630616
mp-770642,F3Li2Mn1O4S1,-2.3997622432020638,0.08414137616491792
mp-28278,Ge1Na2Se3,-0.9871966378816447,0.0
mp-568761,Ag1Te1,-0.07075093374999852,0.0007340775000002006
mp-720382,Cl2H12O13,-0.9723411073148148,0.004202439768519244
mp-770773,O7Rb2S2,-2.1126102011363694,0.0
mp-3756,O4Sm1Ta1,-3.5447502512222235,0.0
mp-30062,Br6Cs2Pt1,-1.3064771455555553,0.0
mp-774430,F4Li2Mn1,-3.0324127142282435,0.01941146571428882
mp-752459,Gd5O12Y3,-3.8132603009999997,0.001779092875005972
mp-22186,Ge2In6O9Pt1,-1.7498080904166657,0.0
mp-510347,Br1In5S5,-0.8288222546212102,0.0
mp-15687,As1K1Zn1,-0.456147569916667,0.0
mp-568864,Cl3Cr1Rb1,-1.7380090395000003,0.018921703444442172
mp-735822,F24Fe3Pb8,-2.5722763194285694,0.0035898166666722122
mp-23902,H3O4P1,-1.6354810605282735,0.0
mp-557123,Cu1Na2O8Si3,-2.5295425352976175,0.00868474678592587
mp-605437,Fe1H1O2,-1.5503657537499995,0.010833543437497761
mp-37436,Li7O6Sb1,-2.160731994702381,0.009166467857153344
mp-696085,H12O11P2Zn2,-1.5548046495524679,0.020778134679099374
mp-7113,Au1Cr1S2,-0.7597987337499976,0.0
mp-20015,As2O6Pb1,-1.4271101249999987,0.0
mp-647727,Cl1F9N2Re2,-1.9586451083928569,0.009951487803466361
mp-3281,Al5B1O9,-3.3673741635277774,0.0
mp-27422,Bi1Cs1F6,-2.554742906831899,0.0
mp-3594,Ga1Gd3O6,-3.3744154545000016,0.0
mp-6058,F6K2Na1Sc1,-3.573528456255173,0.0
mp-766929,O9P2Sn4,-2.1203379809523804,0.0059337304166210934
mp-559383,Lu1O7P2Rb1,-3.165357986904761,0.0
mp-773511,Co5Ni1O12,-1.0067936255555554,0.02859451009259908
mp-756718,Bi2Li4O5,-1.8954811938257572,0.030327919545504563
mp-556118,Ba1Hg1O2,-1.884694018541668,0.0
mp-769294,O6Rb8Sn1,-1.4994600716666662,0.014312852666627407
mp-669359,K1Nd3Te8,-1.3382723626041677,0.0
mp-556156,B1Li1O5U1,-3.176643329687499,0.005867669910740947
mp-697085,H2O1,-1.0332843041666664,0.0
mp-557784,La1Nb1O6Te1,-2.8720154193518517,0.0
mp-555414,Ba3O1Sb4,-1.362615599062499,0.0
mp-585964,Cl7N2S3Sb1,-0.621570841730769,0.06910659176848483
mp-667345,Nb1O6P1Tl2,-2.422016821916667,0.0
mp-699370,Co1Nb2O6,-2.62569987388889,0.0
mp-30158,Ga4O9Sr3,-2.7235247255468753,0.0
mp-23048,Br3Cs1Mn1,-1.711555539896554,0.0
mp-37473,F2O1Ti1,-3.5397061780208334,0.0477984284369275
mp-626182,H1O3Sb1,-1.58092242125,0.016081775750001626
mp-684265,Al4Mg2O18Si5,-3.310054758879312,0.0
mp-3654,Ca1F3Rb1,-3.718474268999999,0.0
mp-19501,Ba6Na2O17Ru2V2,-2.6024596526501194,0.0
mp-753845,Cu1Li1O2,-1.4109713327083329,0.0
mp-19350,La1O3V1,-3.276720820500002,0.0
mp-23860,Cl1H1Sr1,-1.7630134920833338,0.0
mp-30990,K6O7Si2,-2.487690719283333,0.0
mp-674477,Mg1O9Zr4,-3.624396451696429,0.057063435357145566
mp-641924,Bi2Pb1S4,-0.6922504507142843,0.0020031886309530883
mp-755128,O2Sm1Tl1,-2.6234152589583326,0.09728754484397806
mp-532768,O24P1Si5Y1Zr5,-3.5283781741567446,0.01576965805800275
mp-567601,C1N4Sr4,-0.843225593333335,0.0
mp-622199,Cu1K1P2Se5,-0.6130262503616066,0.0
mp-555777,Ga3N3O1Zn1,4.3105761659374995,0.024545180312481873
mp-24241,B12H12I1Rb3,-0.46950954116071386,0.00583100642857134
mp-14433,Ge2N3Na1,-0.38333566272987935,0.0
mp-753152,C1Cu1Li1O3,-1.6196828961805565,0.04289334979173157
mp-557343,B1O7P1Zn3,-2.1196922978174584,0.01716178854167379
mp-556866,Ag2Hg1I2S1,-0.46310402274305523,0.0
mp-31213,O10Sr4Ti3,-3.5101055114215685,0.0
mp-22987,Bi1I1O1,-1.1511319741666644,0.0
mp-510279,As1H1O5Pb1Zn1,-1.6828713706944443,0.0
mp-752408,Ba1I4Sr1,-1.9912969840277774,0.021835488333333746
mp-704240,Co1O4P1,-2.0783466844444445,0.0
mp-556062,Na1Nb4O17P2Tl3,-2.6601496464135193,0.0
mp-775944,Ba2N2O11Ti6,-3.182304087440476,0.018898314195976155
mp-771889,Cl16La2Sr5,-2.7876323655797104,0.09737640673913192
mp-556712,Bi1Ga2S4,-0.8875868317857142,0.0
mp-30213,Br1F15Sb2,-2.1789464972222223,0.0
mp-6236,Be1Na2O4Si1,-2.8007873783566812,0.0
mp-10163,Al1Na1Te2,-0.8814380399712638,0.0
mp-768871,B10Bi6O21,-2.3086124721396395,0.09726842233102097
mp-583762,Cl13Na3W3,-1.5629588373502723,0.0
mp-643002,H6Mg2Os1,-0.4107195225000011,0.0
mp-5036,Er1P1S4,-1.3462721761805554,0.0
mp-29205,B1O3Y1,-3.4042422628333346,0.0
mp-560681,Nd1O14P5,-2.8247221438333328,0.0
mp-557510,Cl1Cu3S3Te1,-0.47941361200520793,0.028055906367184136
mp-690517,La2Ni1O4,-2.921735178571429,0.0580689085716694
mp-13897,F7K3U1,-3.5097577489999994,0.0
mp-768638,Dy3O12Sb5,-2.472484050249997,0.0
mp-754777,La1Na1O2,-2.997019227262931,0.0
mp-690551,Li4Mo3O8,-2.063813125555556,0.058716107666686904
mp-557787,O3Sb1Tl1,-1.4455774609999992,0.0
mp-764933,Fe3Li10Mn2Ni3O16,-1.8301666602704525,0.08625409650727178
mp-556048,Nb2O5,-2.726618070714287,0.0
mp-14401,Ca1Na1O4P1,-3.0358464855788183,0.0
mp-555587,K2P2S7Sm1,-1.308796999961806,0.0
mp-554682,O2Si1,-3.0349487679861133,0.0
mp-674999,La2O7Zr2,-3.63807374465909,0.0
mp-674842,Er2O7Zr2,-3.7491890653787903,0.07873143272727584
mp-31356,Mo1N4Sr3,-1.0951870707812503,0.0
mp-554033,Na6O19Si8,-2.8016476985101013,0.004244937045354625
mp-1017000,Mg1O3Zr1,-2.8427337352499995,0.6682193389999973
mp-754150,Ga1La3O6,-3.5223017049999994,0.002251134124684029
mp-18896,O13V6,-2.3925878954605255,0.023473434473677463
mp-755751,Ba1F5Y1,-4.278946371428572,0.0001742715711700831
mp-554288,H4Na1O5P1,-1.9005754341838341,0.007845856363952014
mp-643101,H6Pt1Rb2,-0.4694704927777767,0.0
mp-1020115,Mg1O3Si1,-3.2156723504999993,0.005957224250073523
mp-674537,Ba2Bi6O11,-1.7224621803289473,0.24157695000002452
mp-684052,Li1O24P7Sn6,-2.3545361938596487,0.05950361015356265
mp-581361,Ba3C5F2La2O15,-2.886917607037037,0.0
mp-14399,Al1Li1O4Si1,-3.2045218839285714,0.0
mp-720104,Al3Ge3N1Na4O14,-2.4287105713482755,0.0
mp-27755,Al1Cl4K1,-2.1648323120416664,0.0
mp-546266,Bi2Dy1I1O4,-2.3423211002083333,0.0
mp-18511,F3Nd1,-4.452660934583332,0.0
mp-13799,F6K2Na1Y1,-3.5491640850879307,0.011066738749720884
mp-765834,F11Li6O1V2,-3.12115604125,0.015559717928396565
mp-680836,I4O1Ta4Te9,-0.8606142804861115,0.02059316364152834
mp-769038,Li3Nb1S4,-1.33990568765625,0.0009539628124601851
mp-554390,Al2N2O3Si1Sr1,-2.622646266157408,0.0026493053691680757
mp-776314,N2O1Zr2,-2.3313238654999977,0.0
mp-16780,Ba1K1Nb1S4,-1.7064254814999995,0.0
mp-541509,Ni3Se8Ta2,-0.8817404310576922,0.0