Material ID,Compound,Energy,Hull Distance
mp-777731,Ba6Br15Y1,-2.5282941628030304,0.06143724636363759
mp-4326,Er1K1S2,-2.1653999281770826,0.0
mp-558566,Al2Ba5Er2O13Zr1,-3.495143985597827,0.0
mp-743878,Cl1Fe2H3O12Te4,-1.4806099686553025,0.0
mp-569779,Pd1Sb1Sc1,-1.1327451249999996,0.0
mp-24292,H6Ru1Sr2,-0.6912334919444447,0.0
mp-23443,I3Mn1Tl1,-0.7854134142528736,0.016384092500000502
mp-1016108,N2Ti1Zn1,-1.0696418929166676,0.0
mp-643458,H1Li1O4S1,-1.9379809884226182,0.0
mp-27576,Ge1O5Sc2,-3.3056935544270836,0.0
mp-23944,Ba1Cl2H6O11,-1.1746889333125003,0.014285083124844533
mp-765860,Co1Fe2O4,-1.5248913607142853,0.0
mp-675416,Nb2O9Sr4,-3.2004702751666665,0.0
mp-19153,Lu2Mn2O7,-3.056972171118076,0.0
mp-685991,Li5P3Si1,-0.5903389078439155,0.0
mp-21526,K1Pb1,-0.3621892471874979,0.0
mp-4104,Ho1O4P1,-3.509790209722221,0.0
mp-625850,H7N1O6,-1.129916199285714,0.006402178749999773
mp-753751,Ag1F2Li1,-2.09273855,0.0
mp-27144,O3P1Tl1,-2.260692080083333,0.0
mp-23396,Cl3Mo1N1,-0.8079670087500006,0.0
mp-774736,Cu1Li1S1,-0.8634044443749987,0.00457404319444817
mp-561218,Au5K1P2S8,-0.5609861191584811,0.0
mp-625509,Br1H3O1,-1.0298439627500002,0.0
mp-18584,Ho2O4Se1Si1,-3.406219079667969,0.008028853167682648
mp-28144,Bi2O5Si1,-2.2904982421875006,0.012115651562511598
mp-776432,C1Cu1Li1Na2O7P1,-2.1492640371938547,0.03962547920273543
mp-570231,Br3Cd1Cs1,-1.5226548199999854,0.0
mp-556869,I1O7Sb5,-1.6368449898076922,0.014819677019230627
mp-554657,B10Na2O17Tl2,-2.6594556535544123,0.0
mp-558268,Ca4Cl2O21Pb6Si6,-2.804024439455128,0.0
mp-16267,Cd1Dy2S4,-1.9504607917857142,0.0
mp-685036,Al2O3,-3.3131780827500004,0.0
mp-767433,F5Li1O1V2,-3.0541325660648146,0.030927202221813763
mp-771906,Al1Co1Li2O4,-2.3355646292708343,0.061861894062596345
mp-675801,Cl6K1Nb1,-1.895116454125,0.0
mp-755219,O2Sc1Tl1,-2.683081716458333,0.10025822406263574
mp-770735,Cr1O4Zn1,-1.653981655416666,0.0
mp-17708,Ge3O9Sb2,-1.671984309285715,0.0
mp-777480,Li2Mn1O8Ti3,-3.057632134792694,0.0
mp-10288,Cu1La1S1Te1,-1.561359881041657,0.0
mp-763610,Cr1Li1O4Si1,-2.763705982619047,0.018799660360503116
mp-18585,Ag1Rb1Se4,-0.6960230001736107,0.0
mp-558849,Bi1Cd1Cl1S2,-0.9513107874999995,0.011740257499996787
mp-3349,O7Sr3Ti2,-3.4940042456597222,0.0
mp-753056,B1Ho1O3,-3.465238528333331,0.0
mp-29164,Bi1O3Sr1,-2.0339782305,0.0
mp-23487,I1K1O3,-1.0727234022499985,0.0
mp-556418,Al1Cl3O2S1,-1.832343211517857,0.0
mp-625913,H1O3Te1,-1.351986946333333,0.0
mp-674531,Ge1Li5P3,-0.5314046761772483,0.01017867777777326
mp-643245,H5K3Mn1,-0.17662677465900403,0.01931973002789284
mp-770575,Cr1F1Li1O4P1,-2.704110100052083,0.0
mp-37947,C2Na4O5,-1.7726413489106585,0.11597155068181374
mp-571452,K1P1Se3,-0.7977876237848207,0.0
mp-770392,Ba1Br5La1,-2.4765450882142863,0.04473739571428936
mp-1575,C2Ca1,-0.13621045833333412,0.015802891666666596
mp-18859,Cr3F1O12Sr5,-2.7871464759920626,0.0
mp-6528,Al1Cs2F6Na1,-3.4110105570689653,0.0
mp-34322,Dy2O7Ti2,-3.6756593616666673,0.0
mp-554483,Cd3Cl7H8K1O4,-1.4413786438260867,0.014137383152812046
mp-29246,Cd2Cl1P3,-0.4457816763839257,0.009067961458332293
mp-770779,Cr1O3V1,-2.4386046569999977,0.005845087124962944
mp-555359,F3K1Mn1,-3.021168853686207,0.0
mp-775336,Co3Li4O16Sb3V2,-2.0023891488690473,0.05736316756324505
mp-28988,Br9In7,-1.0558386290104154,0.009633180859375035
mp-648414,P1S10V2,-0.8525393666071422,0.0
mp-753055,Bi5O9Tb1,-1.9816627256111115,0.06356629995833316
mp-680183,As2Br4F26O5Te5,-2.04956464671627,0.046748092023416156
mp-19239,Mg6Mn1O8,-2.851691885695402,0.0
mp-757002,C1K1O7P1Zr1,-2.7572031651720774,0.031826991818145765
mp-556994,O2Si1,-3.1853321141666666,0.0
mp-756935,Li3O3Sb1,-2.061588579642856,0.009276197071414265
mp-16771,Mg1O5Se2,-1.4388856353906245,0.0
mp-765902,Ni4O5Zn1,-1.2732285982500002,0.059881293499988074
mp-758842,C4H14N1Nb1O14,-1.4269418019117657,0.05169324115791382
mp-752773,Cu1F5Li4,-2.697890575583334,0.10406590725010609
mp-27742,Cd1K2O2,-1.405248993899999,0.0
mp-766163,O20Sn9Ti1,-2.2339482534444453,0.013651906416694715
mp-755707,K3Li1O16Ti7,-3.24630269428395,0.003406101943990389
mp-23197,I1Tl1,-0.8444115316666667,0.0
mp-7618,Cs3F6Y1,-3.5022529175459765,0.0
mp-754226,Lu1O3Y1,-3.9166854557083353,0.07283456737498
mp-22981,I1O3Tl1,-0.976436957166667,0.0
mp-555202,F4H1K1O1Te1,-2.3759243585520835,0.0022501039202356132
mp-7013,Be2Ho2O7Si1,-3.584242883541664,0.0
mp-32662,O3W1,-2.177862843125,0.0
mp-703352,H6O7P2U1,-1.8326332429241061,0.07637262046436177
mp-733844,Ga1H2Na3O9P2,-2.357918878583744,0.0
mp-559584,Ca1F6Li1Ni1,-2.985715069259259,0.0
mp-622171,O5Sb2V1,-2.02033116921875,0.027452898012745308
mp-560687,I7Nb3O1Te8,-0.6573275761842117,0.0
mp-773547,F5Fe2Li3O1,-2.6116213478409094,0.0880899322729214
mp-4672,P1S4Tb1,-1.2217677250793646,0.0
mp-557778,Nb1O5Rb1Si1,-3.0322292438541667,0.0
mp-773116,La20O1S29,-2.5462962675874996,0.003192838699986851
mp-769409,Ga2O9Y4,-3.412216247861111,0.01953417483337745
mp-770759,Bi1C1Li1O7S1,-1.9079765482575743,0.06361141728266194
mp-764036,Cr1Li3Mn3O8,-2.101414672586206,0.06873580944420823
mp-3502,O8Te3Zn2,-1.6099441357692301,0.0
mp-753610,Ba1Ca1I4,-1.928419109166666,0.027401498749999753
mp-756908,Li3O3Sb1,-1.9775468716071427,0.009276197071414265
mp-14448,Ba2Si1Te4,-1.2442756985714303,0.0
mp-775164,Cr3Li2Nb1O8,-2.5568699390476186,0.0
mp-679944,Li4Re6S11,-0.9945359063492053,0.0
mp-680172,Cd1I2,-0.871264073787879,0.0
mp-24409,H4I1P1,-0.27725751888888855,0.0
mp-562283,Ge1O5Pb3,-1.6326170169444438,0.006652619706779304
mp-10481,Ag3Rb1Te2,-0.47104108020833263,0.0
mp-752717,La2O5Si1,-3.771111570468751,0.0
mp-758234,O8P2Pb3,-2.0880526930219796,0.0
mp-42599,F1Na1Nb1O6Ti1Y1,-3.3730450176410667,0.053562661363176674
mp-752638,C1Cu1Li1O3,-1.6822325897222221,0.04289334979173157
mp-756672,Bi2Li4O13Si4,-2.655135911666668,0.08958509847828791
mp-22517,Eu1N7Si4Y1,-1.4274169642307704,0.0
mp-17077,F5K2Y1,-3.7442841999375007,0.0
mp-19432,K1Na1O6V2,-2.4048899123629313,0.0
mp-1019581,Ca1O10S3,-2.083685182142856,0.0
mp-696794,H1O4Rb1Se1,-1.5069290128348212,0.0
mp-3718,O1Te1Th1,-2.9952846734722236,0.0
mp-27346,Al2Cl8Hg3,-1.517737277307692,0.0
mp-28567,Bi1F4Li1,-2.938952457222222,0.0
mp-18684,F6K1P1,-2.9633805730282736,0.0
mp-15701,Mg1N2Si1,-1.3166643900000006,0.0
mp-559779,Cl1Nd3S6Si1,-2.0712598475000004,0.0
mp-777698,O3V2,-2.4485628245000006,0.0
mp-764701,Li8Mn5O10,-2.0366385391879054,0.03308752875306422
mp-763206,Co3F5O1,-2.0036796929166667,0.0339403854166886
mp-556185,Na1O3Rb1Ti1,-2.7758952481058423,0.0
mp-573119,Bi1O3Rh1,-1.3575309267500004,0.06260362856250126
mp-776684,F6Fe1Li3,-2.9795490942500003,0.0
mp-27384,Ag1I1O3,-0.7260376295833332,0.0
mp-567753,Cu1La3Se7Sn1,-1.6494474348697896,0.0
mp-774243,Cr1Li1O4Sn1,-2.1927505944047616,0.0
mp-13068,Lu2O3,-3.9856215316666637,0.0
mp-23318,Bi1Cl1S1,-1.0299038643749998,0.0
mp-4428,Ca1O3Si1,-3.2706781176666673,0.0
mp-775327,Li2Mn1O8V3,-2.4349469499712635,0.00892360272369024
mp-17539,As1F4K1O1,-2.585834030249999,0.0
mp-19514,Cr1O4Sr2,-2.7899854227976184,0.0
mp-753315,Mg3O4Zn1,-2.7053347693749994,0.032871653125003064
mp-23227,Br1Cu1,-0.5185689149999999,0.0
mp-768592,B1Na2O7P1Sn1,-2.44877636682112,0.0941210073629275
mp-568231,Br3Mn1Rb1,-1.5834641077528686,0.0
mp-28345,C1I12Zr6,-1.224784569868421,0.0023907820050125318
mp-769377,F3O4S1Sb1,-1.9442357116666666,0.056342841129894024
mp-769383,B3O9Rb1Te2,-2.1830612323888885,0.09607715853485908
mp-760491,Ce4O11Y2,-3.7453025833823506,0.05854298823531595
mp-561469,Cl1N3Nd6S4,-2.0656558680357153,0.028372149523809145
mp-557830,Au1Bi5Na2O11,-1.457591141855717,0.06918171825945463
mp-567873,Ge1Rb1Se4Sm1,-1.4130037084821427,0.0
mp-769384,F6Li3Nb1O1,-3.198981740454545,0.055421034477374516
mp-639511,O2Si1,-3.0247248329166667,0.0
mp-768878,Cu1O4Re1,-1.7471371988888886,0.0
mp-768292,B1Bi1Li2O4,-2.236607136979166,0.06414853249969754
mp-553374,Cs4O5Sb2,-1.806577426861285,0.0
mp-558239,O17Rb4U5,-3.344312257115383,0.005692308749923624
mp-625961,H5I1O6,-0.991474970208334,0.01556840468749865
mp-559123,N1O2Si1Y1,-2.956901567833334,0.0049408944354208725
mp-11706,Hg1Ho2O4,-3.0611838749999998,0.0032098807143268815
mp-674459,Er1F4Na1,-4.006652859722222,0.0
mp-27564,B2Na4O5,-2.393587500577324,0.0
mp-510566,Cu1La3S7Sn1,-1.8353308452083326,0.0
mp-556005,S1Zn1,-0.9610413801562512,0.0
mp-23092,Ba2Bi1O6Ta1,-2.9569624602500006,0.0
mp-753405,Cu1F3Li1,-2.334987885666667,0.008663976999969947
mp-7531,Al6Ca4O13,-3.437794598423913,0.013355966811553304
mp-676274,Sb1Se6Tl9,-0.42728642277344164,0.0
mp-3125,F7K3Zn2,-2.840129283645833,0.0
mp-23700,F1H2O1Rb1,-1.92813288675,0.0
mp-2402,Na1Si1,-0.06936126812500021,0.0
mp-676341,F6Na2U1,-3.6121383633333344,0.0
mp-558637,Ag1O3Te1,-1.1233692869166654,0.0
mp-558703,Al3F19Pb5,-3.2098594315740736,0.0019431151388442072
mp-756742,Al1Lu3O6,-3.9379073132499998,0.02755171774998999
mp-690702,H1O4P1Sn1,-2.149061231547619,0.0
mp-763336,Co1Cr3Li2O8,-2.032152237261905,0.038225978571434026
mp-705551,Fe15O16,-1.4393425332258063,0.059510567580640744
mp-554818,F1K1O6Te3,-1.7738840204318171,0.0
mp-13627,O8Re1Y3,-3.2782282172916672,0.0
mp-766931,Li2Ni1O6Si2,-2.5902839470454553,0.05715710386301512
mp-626127,H7N1O6,-1.0682017690178565,0.006402178749999773
mp-39684,Cd1Gd1O7Sb1Ti1,-2.787719338598485,0.0
mp-1017514,Mg1N2Si1,-1.0718920474999996,0.0
mp-569522,Mn1P4,-0.3612154429195414,0.0
mp-540833,Co3O8V2,-1.9473361930769226,0.0
mp-555439,Cs1F4Li3,-3.0213586466163798,0.06663516375000311
mp-752656,Ba1La2O4,-3.4558675635714287,0.0
mp-16828,B7Li3O12,-2.817816821780303,0.0
mp-24396,H14Mg1O11S1,-1.5301230066435179,0.008710220926148425
mp-771189,Ba4O10Ti3,-3.429026329117648,0.019890379411773088
mp-35907,La5Te8Tl1,-1.7190775336904767,0.0
mp-12878,O6Sb1Sr2Y1,-3.1008785502500005,0.0
mp-757156,O3P1Sn1,-2.4557659084453767,0.3098804222143009
mp-31250,B1Bi1O3,-2.301139162083332,0.0
mp-7289,K2Te3,-0.9562976531999997,0.0
mp-26630,O7P2Ti1,-2.9559559716249995,0.0
mp-776361,N2O1Ti2,-2.1303066805833337,0.05300393101133736
mp-1394,O1Rb2,-1.1304228845833333,0.0
mp-30123,Hg2O5Se1,-0.5692755344140643,0.0
mp-770680,Al1Li9Mn2O8,-2.194911968418103,0.06804920795236988
mp-559391,Cl3O7Pr3Si2,-3.3812805100833327,0.004925979959016047
mp-29920,Au3O2Rb5,-0.8582481780000002,0.0
mp-772959,Er2O13P4,-3.15409675997807,0.021618336841954328
mp-558330,Cl1F1I1O1,-0.9527611475000004,0.0
mp-28234,Al12Ca1O19,-3.429738250351562,0.011437919218754367
mp-554025,F1N1S1,-0.4850297748379625,0.178784811097215
mp-754377,K4O4Ti1,-2.293128193592592,0.0
mp-10486,As2Cd2O7,-1.4215301881818179,0.014124001363634746
mp-557027,Be2O7Rb2Si2,-2.975052729326923,0.0
mp-764344,Fe1Li2O4Si1,-2.542298861770833,0.0
mp-771545,Co1Li4Mn5O12,-1.946997855135841,0.07994720917607041
mp-761872,Na2O3Sn2,-1.5912065185714275,0.08379046785719702
mp-753257,Cu1F4Li1,-2.1247429436111105,0.0
mp-772596,Fe1Li2Ni3O8,-1.2925455147619036,0.017240100655006124
mp-27579,Na4O7P2,-2.458436353342491,0.0
mp-7572,Mg1O4S1,-2.3991460587499986,0.0
mp-23497,I4Li2Zn1,-1.1884282680952378,0.02632299883928559
mp-558660,Bi1Mg2O6P1,-2.7128969932142852,0.0
mp-557561,S17Si4Sm6,-1.7634376441666628,0.0
mp-18795,Mn3O6Te1,-1.7662285558448274,0.0
mp-22232,In1Se2Tl1,-0.7565924457552082,0.0
mp-10572,N2Na1P1,-0.8136602374712645,0.0
mp-23582,Bi1K1Li6O6,-1.9907845911071422,0.0
mp-5914,B1Li3N2,-0.9593406440277784,0.0
mp-560331,K2S4Zr1,-1.5548681086785712,0.0
mp-540146,Mn1O4P1,-2.361161482294063,0.0
mp-705495,B3Ca1H5O8,-2.2644651387499986,0.009938921764701798
mp-541096,Cs1Nb1O6U1,-3.237591637270116,0.0
mp-600067,O2Si1,-3.2402386476190466,0.0
mp-16813,B1F3N4S4,-0.8463454959722222,0.1127448525491026
mp-695816,Fe1Li1O7P2,-2.4474212210227266,0.0
mp-757791,O24Sm1Y15,-3.8995740427499994,0.0007998364843743389
mp-559984,Al1Au3O4Rb8,-1.3112023598437497,0.0
mp-10495,Cu1Nd1S2,-1.6017580451562488,0.0
mp-23444,As1Cl2F3,-1.8870876875000004,0.0
mp-653450,Ag7As4Cl1Cu1O14,-1.0975025667283944,0.017811368842600137
mp-643260,H4Na2Pd1,-0.3201156064285716,0.0
mp-775274,Cr1K2O4,-2.0497317669285713,0.0
mp-27047,Cu1Li2O4P1,-2.3014751693749993,0.04814798843522272
mp-14941,Al2F12Pb3,-3.1890223245588243,0.0
mp-771328,O4Pb1Rb4,-1.517340692777777,0.0
mp-34569,Fe1Mg1O2,-2.047725492619047,0.182585063750194
mp-776475,Al2O3,-3.3889349327500007,0.0
mp-753594,Bi1F1O1,-2.231036254999998,0.0
mp-561202,As3K6Nb1O1,-0.849002691295454,0.0
mp-763022,F1Fe1O1,-2.037283905416667,0.040905479444460845
mp-772077,Ba1I5Y1,-1.8312450455952383,0.06748257089285735
mp-14387,Al5O12Tb3,-3.691623608375,0.0
mp-769026,Bi1Li2O3,-1.8257232181944438,0.01781528750003532
mp-28275,Cl5Pr1Rb2,-2.4297979183333336,0.0
mp-704204,Li2Mo1O13P4,-2.5524819218869057,0.011094370204835257
mp-754920,Ba1F5Y1,-4.275775628928572,0.0001742715711700831
mp-6416,Ba5Er8O21Zn4,-3.2702842056250003,0.012357064934284859
mp-680087,S1Zn1,-1.0625486496306822,0.0
mp-28222,Br9Rb3Sb2,-1.551206926607142,0.0
mp-558491,Al1B1Ba1F2O3,-3.5414537927083325,0.0
mp-27938,I4S1Tl6,-0.7879090220454582,0.0
mp-10834,Cu1Nd2Rb1S4,-1.8716955256250003,0.0
mp-626219,Cl1H5O6,-0.9096063764583336,0.0024429286458316213
mp-5878,F3K1Zn1,-2.8150468122500003,0.0
mp-766558,Mn3Na1O6,-1.8850407965172415,0.04656500286943945
mp-753171,Cu1F4Li2,-2.5713481059523815,0.017085583571521568
mp-699466,C2H7N4O5P1Zn1,-1.1389255570446424,0.01685313812326612
mp-559798,F2Ni1,-2.232239561666667,0.0
mp-542704,C1Cs1H1O2,-1.5609040386810342,0.06694554762487748
mp-582080,Cl6Cs3La1,-2.5513592596293106,0.0
mp-559061,Cl4Hg2K2O3S1,-1.6190960283645828,0.026167803550854057
mp-754646,Dy2Ge2O7,-3.0498298155681813,0.0
mp-735489,C6Ca1Cr1H10K1O17,-1.6187891347847214,0.053739410086759816
mp-30301,Cl1Li1O4,-0.6343382469444437,0.0
mp-770427,Ba1Cl5La1,-2.847773842142858,0.06202267517857507
mp-6441,F1K2O3P1,-2.7646759280918363,0.0
mp-555056,Cl6N1S2Sb1,-0.7504251790000005,0.05530135641201195
mp-546679,Al1N1Nd2O3,-3.075219456071428,0.07632814321464412
mp-7609,F1O1Sb1,-1.9391112025000012,0.0
mp-29626,Na4S8Sn3,-1.0029985707471265,0.0
mp-11189,Li2Mg1O4Si1,-2.949870095833333,0.0
mp-767952,C1Mn1Na1O7P1,-2.174376046733281,0.0
mp-756444,Ca2N2O11Ti6,-3.1502799264880954,0.05897123702686848
mp-16135,Nb1O4S3Sm3,-3.024743625170456,0.0036150733767990255
mp-625616,Br1H9O4,-1.1868099866964283,0.0
mp-29292,B10H13,-0.09124897069293564,0.005242831457154323
mp-683943,C3Mo1N3Na2Se1,-0.44426415626023896,0.07288962065136903
mp-642823,Dy2O7V2,-3.2755383581818167,0.01379900977260785
mp-3368,Li1Nb3O8,-2.9777722256944443,0.01997591885415891
mp-581425,S1Zn1,-0.9615482249578393,0.0
mp-554678,Ca1Ge2O5,-2.3038803662500005,0.0053255504375155915
mp-770125,Ba1Cl5La1,-2.8344750060714285,0.06202267517857507
mp-557998,Cu1Dy3S7Si1,-1.8139944047395833,0.0
mp-774946,Li2O8Sn1V3,-2.3746037697619045,0.0006372809826251975
mp-22967,Br4Fe1Li2,-1.4097227309523805,0.029458757857142994
mp-708992,Al1C2H20N1O14S2,-1.2968726588749995,0.05562415123972375
mp-756812,Er1O3Rb3,-2.232762155357141,0.00544615535711885
mp-23454,Ag1Br2Cs1,-1.3870787078304616,0.00501243687500641
mp-6667,B1Ca1O5P1,-3.0833400080803575,0.005556636101340828
mp-550805,Bi2Cl1Lu1O4,-2.495100545625,0.0
mp-676121,Ag3I1S1,-0.2698975696250002,0.054318345000000434
mp-39681,Bi1Na1O6Ti2,-2.8333066363045964,0.014170390486239626
mp-15514,Na1Se2,-0.8830414195797415,0.0
mp-558984,F1Ga1O3Te1,-2.0612152615277783,0.0
mp-18332,Lu2S4Zn1,-1.9805261007142856,0.0010534109285933774
mp-16600,B4Dy2O9,-3.1385918910000004,0.018478380833345416
mp-22538,Li8O6Pb1,-1.975580407944445,0.0009493466666574098
mp-581967,Nb2O5,-3.031131905051021,0.0
mp-638261,Ge1La2O5,-3.1649390200000003,0.0
mp-567178,I2Pb1,-0.860506951111107,0.0
mp-21858,O3U1,-3.525974356249997,0.0
mp-773206,B1Cr1Li3O7Si1,-2.5773364843589737,0.09168655158941383
mp-27202,B9H8S1,-0.2002317531944442,0.01994912755465718
mp-707151,B4H20Na2O17,-1.7039773013238433,0.0189213701304134
mp-570053,As1Au1Bi8Cl9,-0.9277455119736843,0.0
mp-13568,Nd1S2,-2.015294486041666,0.0
mp-696944,Br2H1La1,-1.8996409809375,0.0
mp-763003,F3Li1Mn1,-2.9534401910862074,0.018346049749996853
mp-23719,Al1Be1H5,-0.13650503428571423,0.015239419880952407
mp-776661,Nb1O10V3,-2.4211535619642857,0.08196067517857486
mp-16281,Cd2O7Sb2,-1.5744063868181812,0.0
mp-772105,Li2O5Zr2,-3.2207941154629633,0.07534323480037802
mp-554688,Ba6Hf5S16,-2.1279539866666655,0.01163895481481242
mp-567913,Au1Cs1Se3,-0.5825834624375034,0.0
mp-34932,Ca1H1N1,-0.8558166633333327,0.0
mp-756439,Br5La1Sr1,-2.3760392158571397,0.04384125607142764
mp-763344,Li1O8V3,-2.270742453611111,0.0030000595834067667
mp-773498,Na6O7Sn2,-1.7697957218333291,0.07305442283336064
mp-7651,O4Si1Th1,-3.7915028475,0.0
mp-557407,C3K3Na1O11U1,-2.4514552772699627,0.0
mp-697981,C1Cd3H2O8Se1,-1.4881030233229164,0.0019097745000140757
mp-5859,Al1O4P1,-3.1106957729166678,0.0
mp-562338,O6Se1U1,-1.9731332951953107,0.0
mp-20329,Ag1In1O2,-1.3972014372916663,0.0
mp-21563,Al1B1O4Sr1,-3.22907883422619,0.0693087275614026
mp-771699,O5Sb2,-1.66988120375,0.0
mp-1019378,Al3Ga1N4,-1.4099479918750006,0.005177586250000088
mp-758038,La2O9Ti3,-3.6832013569642856,0.03712931339289024
mp-774236,C1Cr1Li3O7Si1,-2.4968934749999985,0.04109954326100288
mp-766267,O12Tm1Y7,-3.924347089749999,0.001132297531236759
mp-32586,Nd2S3,-2.356461517687501,0.0
mp-558126,H4La1N1O8S2,-1.9311467850781243,0.0
mp-30091,B9Mg1N1,-0.4402782255681824,0.0
mp-27563,In4O7Rb2,-1.892011478782049,0.0
mp-765416,Fe2Li2O19Si8,-2.9142327823521503,0.06598191826612865
mp-17250,K3O3Sb1,-1.825163387535714,0.0
mp-558713,Al1Li1O4Si1,-3.1885149304761904,0.0
mp-10510,Al1B1Ba1F2O3,-3.543395069427084,0.0
mp-754668,Hf3N2O3,-3.07463708703125,0.0
mp-34139,Cr1Mn2O4,-2.1902078786945816,0.009429397142792086
mp-626093,H7N1O6,-1.1070687041964287,0.006402178749999773
mp-669496,I4Pt1,-0.4735170787499996,0.0
mp-640553,Ba1Nb2O6,-3.1796441352777784,0.0
mp-765481,Ag1F5Li2,-2.2439244516666674,0.03802494875080198
mp-505148,I6Pb1Th1,-1.31258491,0.03419087062500026
mp-707014,H10N2O1P2S4,-0.6234156169956143,0.0
mp-28688,Hg1O2Sr1,-1.8248000693750015,0.0
mp-644923,O2Si1,-3.0346163686805565,0.0
mp-22862,Cl1Na1,-2.0384011712500003,0.0
mp-21043,F3Pb1Rb1,-2.746318915,0.0
mp-555253,Ag1La5O7S5Ti2,-3.0597619926666666,0.0
mp-5693,Cr1Na1S2,-1.2521491589062492,0.0
mp-770860,Fe3Li4Mn2O24P6W1,-2.429370671926312,0.08217247457349046
mp-35986,Ba4F17Nd3,-4.3181734775,0.0
mp-541682,Al1As2K3,-0.49651151570833285,0.0
mp-569918,K13N19Na2W7,-0.6415288070025232,0.006037955352302985
mp-768061,C1Mn1Na1O7P1,-2.1678140171775637,0.0
mp-775843,N2O1Zr2,-2.446104106999999,0.0
mp-24148,H1La2Li1O3,-2.89016830779762,0.021306515714332112
mp-558310,Ba1Li2O4Si1,-2.9834378154166665,0.0
mp-5900,Ba2F8Zr1,-4.162881917500001,0.0
mp-1222,Cr1Si2,-0.31195475222222213,0.0
mp-626037,H2O5Si2,-2.346460717037041,0.03544379361110946
mp-722862,Cd1H3N1O5,-1.1739188585,0.0
mp-690552,La1Mn1Mo1O6Sr1,-2.8185043977931037,0.0
mp-768518,Al1La1O3,-3.722796511583334,0.0
mp-759849,Li2O16Ti6Zn3,-3.020139148765432,0.0
mp-559469,C2Ca1H6O7,-1.692423501953125,0.03512293339843797
mp-758662,Ba2Ga1H1O14P4,-2.8199686241964277,0.0003615017325554571
mp-771321,Cs4Ge1O4,-1.7578953875000012,0.0
mp-777447,F7Fe2Li1,-2.651378501583333,0.008919222611102739
mp-767538,C1Ce1Na1O7P1,-2.7354393435122772,0.029042234317104357
mp-4044,Ag1Er1Se2,-1.4067517478645826,0.0
mp-11684,O2Si1,-3.0320921508333334,0.0
mp-730585,B1F4H2Li1O1,-2.5851133691666663,0.01213227916504225
mp-752529,Cr1Li5S4,-1.3044512766666672,0.09840210999999907
mp-561947,Cs1F3Hg1,-2.2519840180862065,0.0
mp-23549,B5Bi3O12,-2.4435738117916666,0.0
mp-714929,Cr1O2,-1.8602717816666658,0.0
mp-25871,Cu2Li3O16P5,-2.383996236662087,0.03935389115418339
mp-29760,Ca10O25P6,-3.316203474033101,0.00788750313017356
mp-5020,Ba1O3Ti1,-3.3722623353333345,0.0
mp-17375,K2Na3O4Tl1,-1.4639798543988505,0.0
mp-34381,H4I1N1,-0.5042597006249991,0.0
mp-3952,Ba1O4Y2,-3.641963924999999,0.0
mp-28662,Sn1Te3Tl2,-0.46936900361111294,0.008845754999999733
mp-771669,Li5Mn5O12,-2.0453929555146293,0.06281588585233132
mp-5029,Cu2Ho2O5,-2.614980042361111,0.05358043000004326
mp-699453,As2H5O8Rb1,-1.5697142985937491,0.0
mp-774417,O24P6Sn3W1,-2.480759662436975,0.0024472457353142242
mp-754353,N4Zr3,-1.6288699800000006,0.0
mp-753720,Bi1Li3S3,-1.1894432039285705,0.02562093928572016
mp-774247,B1Fe1Na3O7S1,-2.1459305179465074,0.0688306307649771