Material ID,Compound,Energy,Hull Distance
mp-29370,B1Na3P2,-0.44440300307539715,0.02541427166666706
mp-15567,Au1Na3S2,-1.0631504676041672,0.0
mp-21489,O3Pb1Rb2,-1.5542690952083333,0.0
mp-675419,Li1Pr1S2,-2.0020677623958334,0.03424991968755409
mp-561317,F4Ni1Rb2,-2.6897647332142864,0.0
mp-4823,C2Na2Pd1,0.033434544379309726,0.04442071783333314
mp-28734,Cl15Co1Zr6,-1.9129251962500007,0.0
mp-643930,Eu2H4Pd1,-0.5489330353571437,0.022623703214286323
mp-755373,Ge1Lu2O5,-3.3221215879687493,0.010703635429867298
mp-767392,Li7Nb5O30Ti7,-3.081735327329932,0.05017972502543105
mp-554079,Cl5Fe1N2S3,-0.5346346940340913,0.051891897324851784
mp-646297,Hg4N6O19Pb2,-0.9205217987499993,0.0
mp-756431,Cu1Li2O4Sn1,-1.838887751458333,0.06771297718757241
mp-556036,Al2Ba3Cu2F16,-3.4865792402173916,0.0014473055831268273
mp-27649,Ba1O7U2,-3.635288052749999,0.009820606499997808
mp-643718,Ba1H4Mg1,-0.49133842500000036,0.004758916249971268
mp-14659,As1K1Se2,-0.8548855525468744,0.0
mp-764234,Li13Mn3Nb2O16,-2.318482571386072,0.08819792029390114
mp-28289,F1H3Si1,-0.9460932800000001,0.024094979999986423
mp-757407,O5Sr2Tl2,-1.8306667266666667,0.0
mp-649177,F25O6Re1Te5,-2.222739431914414,0.02619873238162688
mp-555394,O2Si1,1.737483729027776,0.0
mp-721727,B1H8Na1O7,-1.5157864692334346,0.009068767476883219
mp-27829,Cl6Rb2Se1,-1.2399485607291671,0.0
mp-769366,Nd3O7Sb1,-3.16156518340909,0.0
mp-706,F1Hg1,-1.3152547025000025,0.0
mp-540231,Fe1Li2O7P2,-2.5487909044543646,0.003312129479545215
mp-559356,As1S3Tl3,-0.5279428812500052,0.0
mp-541832,Ba2S4Sn1,-1.703352128571426,0.0
mp-42190,F5K2Na1O1Ti1,-3.319795786921264,0.0
mp-36252,Cu1Nd5Se8,-1.9012662461607133,0.06854616160715388
mp-28931,Ga2O6Te1,-1.9258357018518508,0.0
mp-676881,Ho4O12Zr3,-3.905467613157896,0.02014067685855094
mp-720222,Al3Ca1Na3O16S1Si3,-3.0148613763992653,0.02442433967670057
mp-32633,Dy6Se11,-1.9300734111580884,0.0
mp-560170,Cl3Nd5O10Te2,-3.034738491291665,0.0
mp-6386,Ge1K2O4Zn1,-2.0425177688437492,0.0
mp-3540,Li2O3Sn1,-2.092354975555555,0.0
mp-651961,I4Nb4Te17,-0.6848024605333336,0.0
mp-510293,O5Pb3Se1,-1.2131259743402785,0.0
mp-1413,P2Ru1,-0.6092377322222227,0.0
mp-759433,Cu1F5Li3,-2.6596420775000005,0.07538023166661192
mp-755716,H1Ho1O2,-2.9304591193749996,0.0
mp-541582,Re1Se2,-0.7141983440625003,0.0
mp-735063,C1H7N3O4S1,-0.9613701241015624,0.0321142393796543
mp-560026,B3F1Mg5O9,-3.100724285,0.0
mp-31517,Co1O6Ta2,-2.6681046082962956,0.0
mp-29384,Cl6Rb3Tl1,-1.856725510583333,0.0
mp-29075,Bi5Cl12Ga3,-0.9809859918749992,0.0
mp-542140,Se11Ta2Tl4,-0.798927580536152,0.0
mp-23238,I7Ta3,-0.7740813854500047,0.0
mp-773003,Er2O13P4,-3.1359522235307016,0.021618336841954328
mp-757021,Gd1K1O2,-3.0353889155625,0.0
mp-770701,Li2Ni1O10Si4,-2.8305201836274514,0.06914979338214815
mp-27684,O3Tl4,-0.9381468492261905,0.0
mp-541692,In2Na2Sb3,-0.3319256986576354,0.00842993184523842
mp-625909,Ba1H2O3,-1.2983706247727271,0.27852056104164014
mp-562102,K2O7S2,-2.112281593363635,0.0
mp-28315,Br6Cd1Rb4,-1.8722907072727273,0.0
mp-776315,N2O1Zr2,-2.3353604747500016,0.0
mp-568730,As2Ge4Te7,-0.2797756862820512,0.00700804538461596
mp-560265,C1Ca1O3,-2.68070294975,0.0
mp-763507,Co1Ge1Li1O4,-1.8379788183333343,0.05353633964835147
mp-27499,Ba1S3Te1,-1.190102327708334,0.0
mp-22329,Na1Nd2O6Os1,-2.622611618000002,0.0
mp-558801,Cl9K2O2Pr4,-2.815800005205883,0.03770372137246123
mp-680760,Br7In4,-1.1609495177272726,0.00925579267045345
mp-19893,C1O3Pb1,-1.8066444934999943,0.0
mp-554503,S1Zn1,-1.0623672415625,0.0
mp-22997,Br1Cl1Pb1,-1.4395441983333335,0.010003849999997852
mp-1013922,Cr2Li1O9P2,-2.5188808275892853,0.02242530821377794
mp-759873,F2O11Sb8,-1.8046359029166663,0.07629842589282107
mp-17750,O4Pr2Si1Te1,-3.262621884062499,0.0
mp-571636,Cl1In1,-1.1189812375000003,0.0
mp-23541,Br5K1Sn2,-1.2066522617187516,0.0
mp-29501,As1Rb3Se16,-0.4043972878125004,0.0
mp-758689,Cu1F4Li3,-2.6276113012499995,0.08424514531241689
mp-31292,Pd1Rb2Se16,-0.319859064078948,0.0
mp-675800,Li5P3Ti1,-0.866250379186509,0.02778069833333103
mp-638086,Cu3K3S7Th2,-1.5560832437250005,0.006978122499856454
mp-505702,C1O4Pb2,-1.4372835632142855,0.0
mp-707571,H11Na3O9Si1,-1.4891860699594777,0.007821454218787771
mp-555846,Al1Ba1F5,-4.037243885357137,0.0
mp-541715,Ba3Ga1P3,-0.9467945273469403,0.0
mp-23412,Cl4F1Sb1,-1.0981946587500009,0.0
mp-558088,Al1O4P1,-3.0921552129034393,0.0
mp-556882,O2Si1,-3.035013858125,0.0
mp-18957,Mn1Na1O2,-2.0310870336206897,0.0
mp-541684,Al1K3P2,-0.6229684774503971,0.0
mp-560821,Ca2O4Si1,-3.3027106145238085,0.0
mp-13613,Be3F12K2Mg2,-3.578811391763158,0.0
mp-696815,Al1F4H4N1,-2.1980979492500006,0.0
mp-769571,Ba2O7Ta2,-3.40003400201515,0.0
mp-625604,Br1H9O4,-1.170852773035714,0.0
mp-23563,Cl2O1Si1,-1.9596343896875001,0.01542107468755427
mp-691115,Li4Mn5O12,-2.220875957337164,0.0
mp-569060,Cs2P1Se5,-0.9402261257089943,0.0
mp-776654,Li7O12V5,-2.4598938134722217,0.016129396041678845
mp-17394,Ge1Na1O4Y1,-2.864416394745483,0.0
mp-754410,Ca1O4Tm2,-3.8190796608333324,0.02534589589285119
mp-559143,O6Pb3S1,-1.487261847281249,0.004375956749999688
mp-774223,C1Cl5H2K2O2Os1,-1.4524864434230769,0.012050340179054767
mp-553242,Bi2Br1Nd1O4,-2.3839550415624995,0.0
mp-756076,O4Ta1Tb1,-3.571297683305557,0.0
mp-754826,Cs1O2Sc1,-2.8513533650000014,0.0
mp-37923,Ag1S8Sm5,-2.115449554047619,0.02195439232146157
mp-768468,Bi2In2O7,-1.6332200339772733,0.08053560749999698
mp-771771,O6Pb1Ta2,-2.9704050000000004,0.0
mp-21964,Cu7S4Tl1,-0.3286640369444444,0.013072044796658874
mp-553248,Cs1La1Nb2O7,-3.1967381876528207,0.03321421443215655
mp-567942,Cl6Cs2Re1,-1.5606751530555572,0.0
mp-6606,N7Si4Sr1Y1,-1.4469182548717952,0.0012667226929318294
mp-31003,B10H13I1,-0.1080718073611114,0.0
mp-4730,Ga2Hg1Se4,-0.7734035456250002,0.0
mp-733489,C2Cl11H1N1Sb1,-0.807042313515625,0.0050745867009935886
mp-554996,B19K5O31,-2.829678355871213,0.0
mp-21461,O3Pb1Rb2,-1.3616337179166678,0.0
mp-683905,As1K3Se11Ta2,-1.029875101457721,0.0
mp-505396,Cs1Na3O4Pb1,-1.5906034156992332,0.0
mp-625687,Br1H9O4,-1.1812531301785714,0.0
mp-16102,Ag2O7P2Zn1,-1.983146006354166,0.017565485447557982
mp-772513,Cr3Li1O8,-1.8649653148611094,0.001926487187488372
mp-561027,Al1O4P1,-3.1096775655555544,0.0
mp-753905,O7Tm2Zr2,-3.860395364507575,0.12933127099432473
mp-774357,Co1Na6O4,-1.3944292890282133,0.025926368636376974
mp-11654,As1B1O4,-1.788672174722224,0.0
mp-2741,Ca1F2,-4.223836751666666,0.0
mp-643070,Ca4H14Mg3,-0.505176608690476,0.0021888371553882755
mp-29815,As2La1,-1.2425652154166684,0.0
mp-6318,K1Li1O4S1,-2.3064709627797617,0.0
mp-29555,Br2Mo1,-0.8852387347222235,0.0
mp-10492,F6Rb2Si1,-3.433843378888886,0.0
mp-540721,B5H10Na1O13,-2.0247743280073327,0.001346023843417509
mp-626735,Ba1H4O3,-1.7603594171875008,0.0
mp-624191,Bi1Cu1Pb1S3,-0.610811659999999,0.009528862274361375
mp-558387,F2O1Te1,-2.1168809310416665,0.0
mp-27176,Cl3Mn1Na1,-1.7643146343965512,0.006680491415192336
mp-776418,Ca1Gd2O4,-3.518812423928572,0.058276289999996934
mp-769967,Li3Nb1O8V3,-2.516818389333333,0.07567903541675586
mp-1019525,B5Ba3O14P1Zn1,-3.018121730694444,0.0
mp-28003,F4H6O1,-1.5030869656818175,0.0
mp-22621,Ag1La1O4Ti1,-2.952771782142857,0.08993043749873918
mp-7219,Na2Se3Zr1,-1.5552283211979183,0.0
mp-571594,Ag1K3Se8Sn3,-0.9121127111444441,0.004182947666653429
mp-760007,Hf3N2O3,-3.104613141562501,0.0
mp-22916,Br1Na1,-1.8674453799999995,0.0
mp-674646,Bi6Ca4O13,-2.11612401804348,0.0023691609784637162
mp-695506,Ca7Na3Nb3O30Ti7,-3.2786574741097705,0.064985115674869
mp-4049,O9P2U2,-3.2337525028296694,0.0
mp-764409,Cr1Li2O3,-2.152172750694445,0.006356615833335096
mp-555982,Ge3O25P6Si2,-2.6099609580654755,0.0
mp-554150,Cu1Ge1Nd3S7,-1.751528834583332,0.0
mp-28585,Cl6I1Nb3,-1.3435905433750008,0.0
mp-19162,La1O4V1,-3.2254056699999993,0.0
mp-14091,Ag1Al1Se2,-0.8552725878385417,0.0
mp-1009730,Ca2Sn1,-0.6363162533333314,0.0
mp-559519,As2Na4O9Ti1,-2.2993665922719106,0.0
mp-560008,F2N1P1,-1.9274363066815479,0.0
mp-772185,Hf2Li6O7,-2.9685934527499995,0.0
mp-13194,O4Pr1Sb1,-2.7918022023611133,0.0
mp-15395,Be1Cs1O4P1,-2.8715652019663382,0.0
mp-761763,Co3Fe1Li2O8,-1.5212518565476185,0.0009358778347916541
mp-767661,F5Li2V1,-3.1653221502083335,0.0065138908332991186
mp-12955,Ag1Ho1Se2,-1.439220871588541,0.0
mp-560721,Be1Ca1F1Na1O6Si2,-3.285992977420977,0.0
mp-560577,Ba1Ca1Cr1F7,-3.772466551000001,0.0
mp-756704,Lu1O9Ta3,-3.516885241057694,0.012315178461535061
mp-771248,Ge2Na2O5,-2.1355873082614942,0.00927495892854561
mp-487,Mn1P4,-0.36116065725287355,0.0
mp-10155,Ir1P2,-0.8183616969841268,0.0
mp-571314,Cl4Co1K2,-1.6754426992857145,0.0
mp-680148,Cd1I2,-0.858708033166666,0.0
mp-560939,La1Na1O7P2,-3.11878586154258,0.0
mp-555743,Li1O4P1Zn1,-2.5467882339880954,0.0
mp-23572,Bi1K1P2S7,-0.8053494001401518,0.0
mp-768345,B2Ba2O5,-2.9423662758333347,0.0
mp-18856,Mo1O3,-2.1115918774999987,0.0
mp-28650,Br2Cs1F1,-1.5471347143749998,0.0
mp-620069,Cl9K3Mo2,-1.5887449509821445,0.009370264107143303
mp-600053,O2Si1,-3.0229059059523813,0.0
mp-600001,O2Si1,-3.009195870333334,0.0
mp-19232,Cr1K2O4,-2.1435644607142854,0.0
mp-677002,B2Cl23I5Sr1Zr12,-2.0478632879844962,0.0
mp-4979,Al1Cu1S2,-1.0604500028125,0.0
mp-555292,F2N1P1,-1.9225633773065471,0.0
mp-706629,B2H5Na1O6,-1.9549956349322666,0.009869233424803678
mp-757507,Bi5O12Sm3,-2.4583075262499996,0.028369372843766172
mp-29276,Cd2O17P6,-2.45602408555,0.0
mp-28261,Na4O3Sn1,-1.5649540743749988,0.0
mp-676665,Ba4O12Ta2Ti1Zn1,-3.27357345565,0.008805524500056094
mp-752733,Ga2O5Ti1,-2.6551144971354166,0.03903342343752403
mp-559355,As1Cl1Hg3S4,-0.5162113997222223,0.004546855972221782
mp-762632,Fe1Li1O4Si1,-2.463516441190475,0.001767453928728965
mp-643033,H2K1O3P1S1,-1.8355548744635417,0.0
mp-769007,O3Sc1Y1,-3.9506535382500005,0.019660497916627405
mp-752418,La2O1Se2,-2.9037958164375,0.0011961832774769476
mp-673650,Lu2Se3,-2.0381291036041658,0.0
mp-570117,Er1Se2Tl1,-1.606972259505211,0.0
mp-19474,Ba2O7V2,-2.9233496753409085,0.0
mp-769348,Mg1O3Sn1,-2.4301337942499996,0.0032530724999880077
mp-554121,F11Hf2Na1V1,-3.8279391529367817,0.0
mp-655591,B13C2Li1,-0.1525405551562491,0.0
mp-34036,Bi3Nb1O7,-2.0070797211363627,0.12882594727273045
mp-504751,As1H1O4Pb1,-1.6390662033928562,0.0
mp-1243,Ga2O3,-2.23996648525,0.0
mp-16809,Ho2O7Si2,-3.530258414318186,0.0
mp-18048,As1Li1O4Zn1,-1.9967188063095231,0.0
mp-27485,O7Tc2,-1.4471116913888882,0.0
mp-622116,F4O1Re1,-2.436056693749999,0.0
mp-705558,Fe7O9,-1.40235073734375,0.20520245781250157
mp-776214,Hf2N2O1,-2.5288219870000006,0.0
mp-23643,Cd5Cl1O12P3,-1.9957917132823109,0.010005064939658751
mp-3943,Ba1O5Ti2,-3.5064533167708336,0.0
mp-23251,Br1K1,-2.040195321875,0.0
mp-707483,H4O9P2Ti1,-2.332730753828126,0.0
mp-28563,As1Cs1Se2,-0.8649263556546334,0.0
mp-2063,O3Pr2,-3.71032058725,0.0
mp-554273,Al1O4P1,-3.1049398772321415,0.0
mp-556137,Ca4Li2O13Si4,-3.3045802295833333,0.005882567608685339
mp-757727,B2Ba1H2O5,-2.5525803213333336,0.007370850826588083
mp-762880,Co1Li1O4Si1,-2.328378407976191,0.04657210197674796
mp-4529,K2O4S1,-2.0684648875446427,0.0
mp-16033,O2Sm2Te1,-3.2440899520000017,0.0
mp-705470,Li3Mo4O24P5,-2.4257451961574086,0.019156629123607556
mp-764715,F5O1V2,-3.00376056703125,0.0
mp-662547,Cl9P1Se1,-0.983251387788826,0.0
mp-28121,La3O8Re1,-3.2926857539583323,0.0
mp-672644,K1N1O3,-1.3831627963499997,0.0
mp-1019784,K2N2O5S1,-1.4143189806999998,0.22994292675040667
mp-542117,Cd3O10Se3,-1.3709898201269528,0.0
mp-19198,Co1O4S1,-1.7397758013541669,0.0
mp-770237,C1Li1Mn1O7P1,-2.1827898846225184,0.01828240073909497
mp-770846,Ba3O7Sn2,-2.668888976666666,0.0
mp-559459,Cs1In1S2,-1.18026703953125,0.0
mp-34022,Mg2O4Sn1,-2.5227697985714284,0.0
mp-753958,As1Gd1O4,-2.712546648333332,0.0
mp-695398,H24Na3O15P1S1,-1.264031174745018,0.16663480624974528
mp-572291,Cl1K3O1,-1.5595102902500002,0.0003502354999969981
mp-14168,F6Ge1K2,-3.032872264944442,0.0
mp-771825,Er2O5Ti1,-3.756590757291651,0.0
mp-612740,In2Se3,-0.8018380450729163,0.0
mp-759638,O24Tm11Y5,-3.9924578452500015,0.002546588796879945
mp-764845,F3Li1O1V1,-2.974119934097223,0.006431431706131363
mp-4199,Na2O3S2,-1.738521050800492,0.04194460550587082
mp-29394,C1Cl2Gd2,-1.6647040185000037,0.006939543165768214
mp-29975,B1K3S3,-1.244962002630951,0.0
mp-4103,O7Sb2Sr2,-2.3727615781818163,0.0
mp-756339,O6Te1Tm2,-2.999296992962963,0.0
mp-554278,O2Ti1,-3.502486250277778,0.0
mp-34291,F15In1Zr3,-3.7715043959210517,0.0
mp-568828,Bi1Br7Hg6Sb4,-0.6668626956944448,0.0
mp-554359,Cs2O9Si3Sn1,-2.8724202883074716,0.0
mp-752676,Bi2O5Ti1,-2.1094264252083335,0.0
mp-7368,Dy2Se3,-2.162599036937499,0.0
mp-561547,O3Si1Sr1,-3.4065493310833332,0.0
mp-772131,Fe3Li3O8Sb1,-1.905684526666666,0.04318619716655216
mp-14039,F6K2Na1Rh1,-2.640353809755172,0.0
mp-13056,Ba2La1O6Ta1,-3.5036711217333334,0.0
mp-11347,F3Tb1,-4.504522741875,0.0
mp-12673,Lu2O2S1,-3.6074149262291657,0.0
mp-754605,Li1Lu1O2,-3.383621475,0.0
mp-16610,Ge3Os2,-0.07092388075000003,0.0033006440000008298
mp-6134,Al1Ca1F6Li1,-3.8718742942592588,0.0
mp-22199,In5K1S8,-0.9357993712857144,0.0026481337499964903
mp-32800,Ac2S3,-2.4924864804374978,0.0
mp-770527,Li2Mn4O9,-1.8990358547260542,0.07761708941666517
mp-756173,Fe1Li5S4,-1.2672374789166667,0.06221488999999956
mp-24507,H6Na6O19P4Zn3,-2.196761186627559,0.008566434803344092
mp-12924,K1La1S4Si1,-1.7647353329285715,0.0
mp-769399,Ba1O11Ta4,-3.395683485703124,0.0025585401562131516
mp-695582,La3Na3O30Sr4Ti10,-3.481012259743104,0.00941273306911512
mp-540737,H4O9P2Zr1,-2.071700859486607,0.3505210860936665
mp-6695,Ba1Cd1O7P2,-2.797053614810605,0.0
mp-557724,Bi1F6K1,-2.5307876209062496,0.0
mp-757383,Bi1Li1O4Si1,-2.4658586851190476,0.023689681258661364
mp-21767,O7Pb3Si2,-2.204530015138889,0.0
mp-19750,Ba1Gd2O5Pt1,-3.0143160654166667,0.018368963378966343
mp-581229,Gd2Ge2O7,-2.992427359015153,0.0
mp-3334,O7Sn2Tm2,-2.891033340909091,0.0
mp-5830,As1Na3S3,-1.010346805848215,0.0
mp-6491,Na2O7P2Zn1,-2.5507605998766762,0.0
mp-752579,O5Ti1Tm2,-3.813481975520837,0.0
mp-24041,H2Mg1O5S1,-2.059017084652778,0.0
mp-625112,H8O6Pt1,-1.1416635975,0.04856876099999947
mp-643579,F6H3O1Sb1,-2.1688238892045457,0.0
mp-560476,Na1O4Rb3Ti1,-2.362085110820561,0.0
mp-561355,Cl6O1S1Ti1,-1.6103580417592593,0.02060551582949029
mp-644486,Al1H4K1,-0.3090018955000004,0.0
mp-764115,O7V3,-2.2612274192499995,0.0
mp-753548,O7Rb6Ti2,-2.4783556215277773,0.0
mp-773069,Er1O9Ta3,-3.4938835372115373,0.003096970769223508
mp-29269,F4Na1Sb1,-2.695322705,0.0
mp-685272,Br3In1Sn1,-1.0342468507083324,0.0
mp-505589,Ba1Cu1Fe1O5Y1,-2.4684895300462966,0.008851878195701978
mp-775265,F8Li2Mn3,-2.9697698177276752,0.021743724615368238
mp-642996,H6Li4Os1,-0.501204447121212,0.0
mp-560711,O1S14Sm10,-2.4728519105999998,0.008010291400007077
mp-19359,Fe1Na1O2,-1.7735109824999995,0.0
mp-22996,I1Sb1Se1,-0.4073264355208342,0.0
mp-10555,Ba2Li1N4Re1,-0.9647003679166666,0.0
mp-570935,I1Li1,-1.4476474966666668,0.0
mp-571464,P1Rb1Se3,-0.8055955412395832,0.0
mp-753654,Li1O4P1Sn1,-2.376845340425169,0.005276800415974289
mp-766058,Fe2Na1O3,-1.6032911300738921,0.07550732166667107
mp-769023,Ba2Cl25Y7,-2.691342752696079,0.09159296647058734
mp-777396,Fe1Li2Mn3O8,-2.004761554675698,0.0017531581590444847
mp-555403,F6K3W1,-2.8465991216749975,0.0
mp-1672,Ca1S1,-2.4356079989062493,0.0
mp-556060,Br1Nd1O3Te1,-2.3356690052777775,0.09519638291573163
mp-505131,Cu1Li1O4V1,-1.961669251904762,0.04786130142854412
mp-683902,As1Nb2Rb3Se11,-1.038247646810662,0.0
mp-556785,F5Rb1Te1,-2.563850706607142,0.0
mp-5141,Na2O4Se1,-1.756275226492456,0.0
mp-765493,Ba2O5Sb2,-2.4899296062500005,0.0
mp-569129,Cu1P1Se3Tl1,-0.47941286019965307,0.0
mp-707532,H8N1Na1O6Se1,-1.1913463956601793,0.08310547458646766
mp-766337,Ba6Ca1I14,-1.9964719302380949,0.06548554928571397
mp-20463,Ca1F6Pb1,-3.032387561875,0.0
mp-558183,Cl5Mo1N2S2,-0.7024538231250013,0.07452926564070346
mp-556735,Bi4O7Rb2,-1.7087203338461532,0.0
mp-567918,Ba2N23Nd7Si11,-1.4421928213372095,0.017534671802339682
mp-686466,Cl3N27O14Pr16Si16,-2.195349188453947,0.03928936871630384
mp-32833,Ho6Se11,-1.9580248659283086,0.006394001341910345
mp-690546,Ni1O3Ti1,-2.470649968666667,0.0
mp-690012,Cr1O4P1,-2.349490814940476,0.0
mp-721158,H12Mg2O13P2,-1.9144997556650254,0.008783472156208868
mp-4438,Ca1O3Sn1,-2.5158095035000003,0.0
mp-772396,Cr2Li2O7,-1.8253874779924244,0.011075124886345251
mp-1019546,Ba1O17Si5Y4,-3.6239756729783954,0.0
mp-715275,Fe3O4,-1.532000916428571,0.0
mp-11773,Ga1Nd3O6,-3.451647479750001,0.0
mp-554405,S1Zn1,-0.960316791406251,0.0
mp-24193,H3Na1O2,-1.2841401389583336,0.0
mp-4961,Hg1Na2O2,-1.346165763120689,0.0
mp-22906,Br1Cs1,-2.07267809,0.0
mp-634326,Ga1H1O2,-1.7380223834374995,0.0
mp-29584,As2Be1K4,-0.3937661912857117,0.0
mp-752605,Ag1F3Li1,-2.0793751635,0.046020595500646876
mp-35208,F1Nd1O1,-4.104117042916666,0.0
mp-3719,Nb1Rb3S4,-1.4385520706249988,0.0
mp-567855,Ge1I3Rb1,-1.0606628555,0.0039461440000035704
mp-6174,Al4Mg2O18Si5,-3.3338258202586215,0.0
mp-568883,N3Pr3Se2Si1,-1.786797427743055,0.0
mp-608516,Cl4Cs1Ga1,-1.9401314074425307,0.0
mp-752755,Na1O3Sb1,-1.8061934444999992,0.0
mp-767416,Bi1C1K3O7P1,-2.171734501645603,0.08748018845973468
mp-721988,Al1Na1O8Si3,-3.0435946346153853,0.0
mp-23370,Br7Cu1W3,-0.8528923092045443,0.0
mp-17808,Nb2O9Zn4,-2.3286413799166668,0.06118967208332719
mp-752637,Br1Ho1O1,-3.2827432483333348,0.0
mp-18966,Ag1Fe1O2,-1.2163808835416656,0.0
mp-555911,As1F6Tl1,-2.4727194966666666,0.0
mp-605691,H7La2O11P3,-2.261573400054347,0.06146485398905779
mp-4324,Cd1S4Tm2,-1.9529908514285736,0.0
mp-623984,O4Pb1S1,-1.866943043020833,0.0
mp-770854,Fe3Li10O24Sb7,-1.9636904787121212,0.08091362768178004
mp-27653,Al1H4Li1,-0.25857825597222234,0.013010119027777156
mp-19403,Ba2Ca1Mo1O6,-2.899564090499999,0.0
mp-30198,Ba4Ga2O7,-2.612098887692308,0.0
mp-766269,C2H5N4O3P1Zn1,-0.9550073179427088,0.08382549739805167
mp-16337,Ga2Hg1Te4,-0.5424602509523808,0.0
mp-560616,C1K1O2,-1.9067747144999991,0.013341225234366316
mp-581749,Cs1Cu3Se5Tm2,-1.3128360189075563,0.0
mp-560831,Na6P4Pb3S16,-0.9678083297463341,0.0
mp-23086,Cl1Er1O3Se1,-2.4930691549739574,0.0
mp-756241,Bi1O4Pr1,-2.4087982477777783,0.0
mp-28473,C1Cl1F3,-1.785901039,0.014502380593757636
mp-771005,Lu1O9Ta3,-3.488095445288462,0.012315178461535061
mp-27400,Br3Cd1Rb1,-1.5229828317500023,0.0
mp-770850,Co2Li2O5Ti1,-2.1949636402500006,0.04629312749939274
mp-650741,Cu4Mo5O17,-1.6109763916346138,0.033713443576977815
mp-504957,Cl4Rb1Re1,-1.5192460622222197,0.0
mp-5246,K1Nb1O3,-2.8491926499500004,0.0
mp-505368,As2O8Pb3,-1.466893577692308,0.0
mp-36903,K1N1O3,-1.4120574119499991,0.0
mp-27805,Ba3S5Si1,-1.9608397101736097,0.0
mp-775978,C4Na4O16S1Sb2,-1.8663030632598971,0.05887296233027657
mp-560501,Cu1S7Si1Tb3,-1.8230278714062507,0.0
mp-560032,As1Na1Nb2O8,-2.5713818819899417,0.0058675203725965614
mp-704946,Fe2O16P4Pb3,-2.3532351789333323,0.0
mp-23199,Ba1Cl2,-2.9614528075,0.0
mp-777463,F6Fe1Li2,-2.6103210390740736,0.0
mp-554523,Br1F5O3Te1,-1.5715155917916672,0.0
mp-771660,Mn1O7P2,-2.2635515095435137,0.0
mp-570948,Ca1Ga1Li1N2,-0.8404244721666672,0.0
mp-763350,F1O5V3,-2.602765628888889,0.00132751277769769
mp-14708,Ge2O7Tm2,-2.9136990931818176,0.0
mp-570000,Br9K3Mo2,-1.367639606517857,0.002236054642858016
mp-767589,F5Li1V1,-3.0221343940476193,0.001775361071415103
mp-27283,Cl5Pb2Tl1,-1.514840746041667,0.0
mp-16363,As1Co1S1,-0.46852790677083317,0.0
mp-676609,Ga6Sn1Te10,-0.5713660833333328,0.0
mp-676378,O11Sr6Ta2,-3.2028860243245605,0.14647366868422446
mp-574928,Cs1F1H3O3P1,-1.9435447958349306,0.00827582412918362
mp-18341,Er1F7Pt1,-2.9207061322222225,0.0
mp-555344,Hf2O9P2,-3.1982687646886436,0.0
mp-770720,Li4O4Zr1,-2.64986096537037,0.03679628277776222
mp-770862,Cr2Li2O7,-1.8556452067424245,0.011075124886345251
mp-28109,As1O3Sb1,-1.3851026589999988,0.0
mp-752538,K1O2Sn1,-1.7253141115625006,0.017330916093659665
mp-36526,Ac1F1O1,-4.108767859999996,0.0
mp-754009,Bi1O3Sc1,-2.7944699632499996,0.021432688999863458
mp-555978,Cu1Ge1S7Sm3,-1.7465687384895834,0.0
mp-758316,Bi8La10O27,-2.9005076582777765,0.0
mp-571093,Al1Ba1H1Si1,-0.45983012531250056,0.0
mp-707900,H20N5O16Pr1S4,-1.3589211010144928,0.005281996984574216
mp-5782,Ag1Al1S2,-1.0089082894791663,0.0
mp-770469,Li5O5Ta1,-2.6271494659469696,0.0
mp-35714,La5S8Tl1,-2.2691479198809503,0.011248600344639925
mp-754363,Ba2Hf1O4,-3.5339017400000006,0.0