Material ID,Compound,Energy,Hull Distance
mp-763976,F5O7V4,-2.5211846464843752,0.007726934583272893
mp-571623,Al2Bi1Se4,-0.8826227769642847,0.0
mp-558501,Bi6I1K1O9,-1.6709494999852936,0.0
mp-558191,Na2O7Si2Zr1,-3.1507815274461195,0.0
mp-2392,Se5Th2,-1.7808861118303574,0.0
mp-560637,Cl4Ga1N5S5,-0.3074816988750001,0.11046510804731445
mp-10534,S19Sm10,-2.1286816622198272,0.0
mp-772052,Cd1O4Se1,-1.2964952428906251,0.0
mp-722890,H6Ir1Li3,-0.5624264767500001,0.0
mp-675128,O12Sc4Ti3,-3.724939415526316,0.03659437631579982
mp-22430,As1B1O5Pb1,-2.0692687809375006,0.0051937650481233
mp-14415,Be2Ge1O7Pr2,-3.219984852986111,0.0
mp-763225,F1Li2O2V1,-2.6150911911111114,0.006646839166824255
mp-696379,B1F4H3O1,-2.287958016990741,0.0
mp-17701,N3Nb1Sr2,-1.2479641710416682,0.0
mp-29197,Br6La3N1,-2.34622737,0.0
mp-642834,Ba1Cl1H5O3,-1.7445940886249993,0.0
mp-764736,F7O5V4,-2.7518786907031254,0.0
mp-553925,B19O31Rb5,-2.8262180618939405,0.0
mp-530164,Al2Mg1O4,-3.3671849230357145,0.0
mp-505365,Mg3Nb6O11,-2.7593626053749993,0.0
mp-772187,Al1Ga1O3,-2.81644897275,0.028006870499983093
mp-14205,As2Cu3K3,-0.29791358959375014,0.0
mp-767598,Li1O5P1V1,-2.5966850166220237,0.0
mp-772619,Li8O9Te2,-2.049980753618422,0.047234077894738914
mp-560920,O2Si1,-3.256426236458333,0.0
mp-755515,Lu2O6Te1,-2.896019518518518,0.0
mp-23067,Cl6K2Pd1,-1.552251237333333,0.0
mp-15897,La4O7S3Si2,-3.3243087459765635,0.0
mp-28962,Bi2O11Ti4,-2.9704018435049004,0.005400911690608556
mp-683918,C2N3Rb1,-0.2656310965277776,0.0
mp-541111,Al1Cl4Ga1,-1.7000833129166668,0.0
mp-773011,Dy2Ge2O7,-3.0270344087121193,0.0
mp-772550,Cr1O3,-1.4982170621875008,0.033993579687495945
mp-6253,Be1F4K1Li1,-3.327788538988096,0.0
mp-2079,P3Rb2,-0.43127663878571454,0.0
mp-581875,Bi7O18Ta3,-2.3441374204285714,0.0023187506696556526
mp-5401,B2O5Sr2,-3.205227273148119,0.0
mp-679967,Br3Nb3Se10,-1.055692611777344,0.0
mp-28564,Br6Pb1Rb4,-1.816351392727274,0.0
mp-41918,La1Nb1O6Sr1Zn1,-3.0261638534166666,0.1262261636666878
mp-505185,H16Na2O9,-1.1569948636574072,0.009139507517673976
mp-556046,B2Ga2O7Sr1,-2.7666386192361103,0.0
mp-555692,C1O3Rb2,-2.083835281458333,0.0
mp-5377,O4Ta1Y1,-3.7174729127777772,0.0
mp-561586,Cs1La1S2,-2.161194105156248,0.0
mp-568692,Br7In4,-1.154515175,0.00925579267045345
mp-1002069,Cl1I1Li1Na1,-1.712508186178161,0.09356246125000367
mp-18658,La1Rb1S4Si1,-1.7697979839285713,0.0
mp-4934,Al2O5Si1,-3.3681805182812505,0.0
mp-777901,F5Li2V1,-3.160748500833333,0.0065138908332991186
mp-254,F3Nd1,-4.454145914583333,0.0
mp-768450,O12Sb5Tm3,-2.683703585999999,0.0
mp-768966,B1Li5O4,-2.315582366583333,0.046900530250002605
mp-774950,Co1Li2O8V3,-2.282727879047619,0.001617049524022767
mp-768988,Bi2Li4O5,-1.8394498963257577,0.030327919545504563
mp-540905,Al1Ge1O5Y1,-3.165857045937499,0.0
mp-557189,Li1O3P1,-2.697634630595238,0.0
mp-556392,S1Zn1,-0.9613172499776782,0.0
mp-10444,Al2Ca2O5,-3.4121837681944434,0.022602242143017846
mp-13923,P1S3Sn1,-0.40666247878273654,0.0
mp-562345,Cs2O5Si2,-2.749327185277778,0.0
mp-540794,Ba3Nb2O9Sr1,-3.2451979874999997,0.0
mp-675634,Bi2F7K1,-2.8008238720500005,0.0696296920004773
mp-559400,Be1F2,-3.5502297983333335,0.0
mp-551470,O1Tl2,-0.6799191766666629,0.0
mp-760386,Cl1Cs1O3,-0.8030412478750009,0.03418474212498239
mp-556865,B1Be2F2Na1O3,-3.116429949505108,0.00581759166299673
mp-557035,F1K3O4S1,-2.422700024402778,0.0020730874998713647
mp-756224,Gd1O3Tb1,-3.8457151782500008,0.0977704836250382
mp-774316,F11Mn6O1,-2.8330503310464556,0.014400235486140013
mp-554238,Bi1Cl2Cu1S1,-0.9248655935000002,0.03718448162499825
mp-11674,Al2Se3,-1.008823536437501,0.0
mp-18884,Cr1Na4O4,-1.8971194445019155,0.0
mp-548479,Cs2O7U2,-3.2780752979192793,0.0
mp-755392,Li1O4P1Sn1,-2.397825332023809,0.005276800415974289
mp-24431,H2O3Si2,-2.126009401607143,0.02015039898809918
mp-766248,Al11In1O17,-3.2940942601293095,0.013423994578543793
mp-565354,Cl18La1O17P5,-1.1543306244076652,0.08998179828800142
mp-30233,As7Na3,-0.3572659931250001,0.0
mp-673833,As4Li7V1,-0.7911332634722221,0.0
mp-697974,H5N1O10P3Sm1,-2.2838423173749995,0.0
mp-561277,K2O3Pb1,-1.4175266066666647,0.0
mp-683600,Cr4K3O16P1,-1.9543522385997012,0.020893569921270522
mp-13445,As2Pt1Rb2,-0.6148521795000021,0.0
mp-23403,F5I1Sb1,-2.285633764285714,0.0
mp-17891,Na1O4Si1Y1,-3.3438010809113297,0.0
mp-762271,Li2O6V3,-2.459130457878787,0.049279025795435416
mp-27544,Bi2Br9Cs3,-1.6669764892118242,0.0
mp-673696,Lu4O12Zr3,-3.953410557192979,0.0
mp-542043,C2H6K4O9,-1.7618239471785713,0.0
mp-4338,Cd1Cr2S4,-0.9853392037499995,0.0
mp-752549,Ag1F2Li1,-2.1264277866666674,0.0
mp-695514,Na1Nd1O12Sr2Ti4,-3.467109831277299,0.01566593715327471
mp-571213,Cl2N1P1,-0.9675659805357135,0.0
mp-754604,Ba1Be1F1O4P1,-3.1884103653720235,0.0
mp-568854,Br1Cl3Cs1Re1,-1.4761320613218392,0.019367659272593468
mp-691106,Mn1O3Sn1,-2.0589920850862056,0.0
mp-42508,Al1Be1Cl1Na4O12Si4,-2.96102007766117,0.0
mp-29313,P4S29Ta4,-0.834332197336711,0.0
mp-27033,Li2O7P2Sn1,-2.552407702371031,0.017169976038809764
mp-28774,F3K1Sn1,-2.7911658117000004,0.0
mp-677248,Al1Ca2H10I1O8,-1.8839017528409086,0.0
mp-14721,K1O5Sb1Si1,-2.54085855146875,0.0
mp-776062,F1Fe1Li2O4P1,-2.373490365694445,0.011209096524339261
mp-767671,F6Li3V1,-3.1417282310000005,0.0
mp-756228,Cl5La1Sr1,-2.672361040357148,0.04997082071429101
mp-560595,As1Ca2Cl1O4,-2.7511022749999996,0.0
mp-28255,H1La1O1,-2.4418182849999988,0.0
mp-650532,Cd3Cs2K2O5,-1.384374374692528,0.0
mp-10336,Ba1Cu1Te3Y1,-1.4514473525,0.0
mp-753709,Ba1Ca1I4,-1.937287699166666,0.027401498749999753
mp-639512,O2Si1,-3.2584632187318827,0.0
mp-560187,As2Cu1O7Sr1,-1.9711745891287882,0.03390016789652121
mp-23375,Cl2N1P1,-0.9651715047916672,0.0
mp-29174,Cl2Si1,-1.3907220766666668,0.061516765416666765
mp-574070,Cs4Pb9,-0.1905237812400518,0.0
mp-555742,B5Ba2Cl1O9,-3.0543065513725463,0.0
mp-6468,Ba1Nd2O5Zn1,-3.137223778611111,0.012473674907263662
mp-6860,Al1N1Na3O9P3,-2.629096280494421,0.0
mp-23632,B1Ca2Cl1N2,-1.751228988194444,0.0
mp-28348,As2Ba2Se5,-1.2973142785243057,0.0
mp-650026,Cl5In2Pr1,-1.7497613430208325,0.0
mp-504827,Ga10Ge1O20Pb3,-2.1470013436764703,0.0
mp-696649,H2I3K1O1,-1.0434302452499995,0.005646511071424649
mp-29450,Cu1I1Se3,-0.17893311640624981,0.0
mp-720719,C1Ca2H2O16Si4Y2,-3.128637510185184,0.0008689223150771273
mp-769317,Ca4O9Ta2,-3.4871992735833346,0.0
mp-675569,F6K1P1,-3.0869626289166665,0.0
mp-773200,B2Li1O5V1,-2.661115837546297,0.037798486044121345
mp-29731,Cl1Ho1O1,-3.513539429583332,0.0
mp-24171,H3O4P1Sr1,-2.17613287843254,0.0
mp-685608,F6K2U1,-3.6598438530555546,0.0
mp-29575,Cl9Cs3Fe2,-1.7361008331403949,0.026505832499999573
mp-752397,Ba2I6Sr1,-2.0303561749999997,0.013791629444444453
mp-706875,Fe21O23,-1.4811452157102267,0.03043501397727123
mp-607450,In3Ru1,-0.1407282375000003,0.0
mp-23702,H2Li1N1,-0.5858346338541658,0.0
mp-1415,Ca1Se1,-2.315957819531251,0.0
mp-777129,O2Ti1,-3.455075328611112,0.0
mp-675601,Al3N1O3,-2.8527374003571424,0.04525350821424163
mp-27910,Bi2S1Te2,-0.5748336551666668,0.0
mp-5725,Ag3Cu1S2,-0.105267754131944,0.036745333888888974
mp-556888,F6K1Sb1,-2.8982096084062507,0.0
mp-556250,B5K1O9Sr1,-2.9597245401093755,0.0
mp-556021,Ba1O3Te1,-2.348481260916667,0.0
mp-5280,Ge2In2O7,-1.8520252386363618,0.0
mp-12427,Ga1O6Sr2Ta1,-3.173726950983305,0.0
mp-18918,O4W1Zn1,-2.0560157258333334,0.0
mp-5078,F4Sr1Zn1,-3.368503986666667,0.0
mp-770212,Li6O1S6Ti2,-1.693282237111111,0.050915329210300085
mp-28658,Cd1Cl4Na2,-1.8444616618719212,0.008163065000246661
mp-19076,Cr1Ho1O4,-2.777057806666665,0.0
mp-505172,Cu1Na1Se3Zr1,-1.2876789039017595,0.0
mp-571102,I1Tl1,-0.8265023399999976,0.0
mp-28134,As2Ba2S5,-1.3684400245833328,0.0
mp-735589,Ca1H1O12P3V2,-2.7288328688157892,0.0034981123706209496
mp-639463,O2Si1,-3.0281377666666662,0.0
mp-18483,O7Rb6Si2,-2.332301599833333,0.0
mp-33319,F6N1Pr3,-3.764570533499999,0.05804702799999362
mp-559415,Cu2Na2O11Si4,-2.566651927334391,0.04129639105237191
mp-643279,H6K2Pt1,-0.39346785177777754,0.0
mp-646008,Gd10S19,-2.034614423049569,0.0
mp-22473,In1Na1Se2,-1.0091971145312488,0.0
mp-542931,B8Bi2O15,-2.3704346508000005,0.0
mp-757495,O3P1Sn1,-2.448131634313726,0.3098804222143009
mp-22660,Ag1In1O2,-1.3972705135416663,0.0
mp-643006,Cs3H5Pd1,-0.3300509331944441,0.0
mp-13275,Na1P1Sr1,-0.9636403148809526,0.0
mp-31045,Au1I3K1,-0.8518802892499991,0.0
mp-18197,Be1Ge1Na2O4,-2.3784493366379307,0.002456796875088152
mp-11583,N2S1Zr2,-1.8884869265000006,0.0
mp-754794,La2O1S2,-3.001822546624999,0.0028980385000213714
mp-561283,Cd1F5Ga1H14O7,-1.6455143283928568,0.0
mp-571527,Cl6Cs2In1Li1,-1.8862196706666652,0.0
mp-13456,S1Zn1,-0.9614129104062499,0.0
mp-676319,Dy2O7Zr2,-3.7615440342045448,0.08609121318179223
mp-768794,B2Bi1Li1O5,-2.412723783101851,0.044938826246124504
mp-18244,K6Mn1S4,-1.3137496821120684,0.0
mp-561397,O3S1,-1.1396540407031246,0.0
mp-18831,Mn2O7Y2,-2.9940069267241385,0.0
mp-573109,O13Se5Sm2,-1.9809478385234385,0.0
mp-771282,Cr5Li24O36Ti7,-2.664230906712962,0.011919628472260198
mp-753830,O7Sb2Tm2,-2.6263450849772596,0.08871712936350691
mp-767573,C1Er1Na2O7P1,-2.762005081866789,0.027840699561075155
mp-27972,Ac1Br3,-2.557457816875,0.0
mp-30949,O1Si1Sr3,-1.4690320674999995,0.0
mp-7297,Cs2F6Sn1,-2.980502065000001,0.0
mp-623030,Cu1Na3Se4Sn1,-0.9423479123922414,0.016426886916210946
mp-667327,Ag2Cl4O7Pb8,-1.3803576468253955,0.0042588784285964975
mp-554120,Cu1Dy1S2,-1.6231230815624995,0.0
mp-28224,As1Cl2Hg2,-0.6550770945,0.024958947999999915
mp-5704,As1S4Tl3,-0.37677492046875116,0.0
mp-17667,Al1Sb3Sr3,-0.959419685714286,0.0
mp-6641,Ba3O9Ru2Sr1,-2.429990696833309,0.0
mp-568662,Ba1Cl2,-2.96823858,0.0
mp-753327,Bi1Li1O4Si1,-2.533071253333333,0.023689681258661364
mp-16964,O2Si1,-3.2603475063888885,0.0
mp-695995,H4O7Re1Sb1,-1.671723987115385,0.0012627547660203438
mp-768969,B7Bi3O12,-2.3768311174621206,0.07767697090917154
mp-12403,B1F4Li1,-3.142573524861111,0.0
mp-23305,Eu1I2,-1.9636234333333344,0.0
mp-674352,Ag7S6Ta1,-0.4396544775297621,0.007279482499999863
mp-757442,Ca3In2O6,-2.5790110290909096,0.033292638409085515
mp-680403,Ag1In3K2Se6,-0.9793437761857641,0.0
mp-16801,F1Gd1O4S1,-2.9667939043749993,0.0
mp-769128,Dy2O7Sb2,-2.7784144955681813,0.08240337048474444
mp-23893,Br1H5N1O1,-0.8107844104687496,0.08796629039437787
mp-662570,B2Ba1F8,-3.517172236325757,0.0
mp-28302,Cd1K4P2,-0.4575818901360528,0.0
mp-769004,Bi1Li3O4,-1.8605725699999995,0.0
mp-17947,Ba1Cu2Ge1S4,-1.057595308958333,0.0
mp-6706,O5P1Ti1Tl1,-2.7836224143824424,0.0
mp-541772,Bi4Br2Ru1,-0.5215993107142849,0.0
mp-644092,Al1H6Li1Na2,-0.3181374936436782,0.0
mp-766995,La3Li1O9Ti2,-3.650199196249999,0.030377531916702574
mp-573727,Au1Bi8Br9Sb1,-0.7813868898684216,0.03804294769736755
mp-2345,Dy2O3,-3.937661027249999,0.0
mp-696175,As1H4Na1O5,-1.5553919410344828,0.003546275795529978
mp-770547,Mn2O5P1,-2.414618007555675,0.0
mp-554758,O7P2Si1,-2.5444750010952375,0.0
mp-12495,Cd1Cs1Tb1Te3,-1.2917839135536393,0.0
mp-18005,Na1O4Ti1Y1,-3.3582368035303776,0.02045927357146076
mp-645375,Bi6O15P2Zn1,-2.0701482676215286,0.000310589444374898
mp-541694,K2Na3P3Si1,-0.40862904167405545,0.0
mp-505177,In2O5Ti1,-2.4099507955208335,0.011752915937585318
mp-777990,O7Sb2Tm2,-2.672308449371201,0.08871712936350691
mp-6457,La2Mg1O6Ti1,-3.6805406093333333,0.008222048249830749
mp-7046,Dy1Rb1S2,-2.13956633546875,0.0
mp-583213,Hg1I2,-0.44613816416666907,0.0
mp-5348,C1Mg1O3,-2.4399124750000007,0.0
mp-771883,Cl9La1Sr3,-2.7259304065384677,0.00991557884615446
mp-1019541,Ba1Ca3O4,-3.0018348912499992,0.18155729499999662
mp-625455,H9Na1O5,-1.2984802760201148,0.0
mp-642787,O7V2Y2,-3.2177777995075756,0.012818004772651907
mp-758243,Nb2O7Ti1,-3.1538103861250013,0.0318379103750285
mp-763959,Fe1Li3Mn3O8,-1.9755118889195407,0.07950468475416698
mp-252,Be1Te1,-0.5703619408333336,0.0
mp-1019713,Cs4O8Si3,-2.796145808281609,0.0
mp-770219,As1Nb1O4,-2.405769787916666,0.060236605104265685
mp-675758,F7La1Sr2,-4.214525899250002,0.12071055166666866
mp-557777,F1K2O10Sc1Si4,-3.294942192277777,0.0
mp-762012,Li1Ni1O4P1,-2.3206675441666667,0.0
mp-559689,Al1Li1O4Si1,-3.180895587261904,0.0
mp-21855,Cu3Se4V1,-0.7233821486718748,0.0
mp-5537,Ag1Nb1O3,-2.177610066083333,0.06373311212522878
mp-36033,F1O1Pr1,-4.078213022083333,0.0
mp-714932,O9V5,-2.4881581431250015,0.01029711928570265
mp-574485,Cs4Ga2Se5,-1.2626602212220808,0.00025875113632280807
mp-679406,H1K2N1O6S2,-1.7282739667291669,0.022989087228503752
mp-772852,H4N1Na3O16P4Zn4,-2.1857202896246406,0.0055930669595283256
mp-28290,Cd1O3Te1,-1.2681171330000012,0.0
mp-654109,Ba1Cu4S3,-0.8104922574218749,0.0
mp-753557,Cu1Li2O5Sb1,-1.7543559426851856,0.06496202833331369
mp-19262,Cd1Cr2O4,-2.147581688571428,0.0
mp-721702,As1H1O5Zn2,-1.7090528104166667,0.0
mp-27828,Cl6Cs2Ti1,-2.244330377688377,0.0
mp-24500,H12O10Se1Zn1,-1.2992896070768232,0.009166674479159495
mp-579536,Cl2Cs1Cu2I1,-1.1503618554885053,0.0
mp-568208,Cl3Ir1,-0.6247670099999993,0.0
mp-705002,Li3O32P9V4,-2.6159433720163676,0.03097171998565133
mp-757745,Ba4In2O7,-2.4612344223717946,0.08173577615384395
mp-560114,Er3F5O2,-4.3846486095,0.0
mp-4693,Al1F4Rb1,-3.644050542291667,0.0
mp-28804,F3O2Tc1,-1.9160590485416666,0.0
mp-768169,C1Ca1Li3O7P1,-2.644363928434065,0.08208867230707612
mp-16978,Ba3Mg1O9Sb2,-2.6949497871666668,0.0
mp-763315,Co2F3O1,-1.959057272708333,0.04900240645832691
mp-34292,Sb1Te6Tl9,-0.43960323375000687,0.0
mp-707176,Al2Ca2F4H5Na1O11P2,-2.816015407017348,0.0014980505938608614
mp-553897,Ba2O8Si3,-3.374508208461538,0.0
mp-682067,Ca1F1K1Nb2O6,-3.1911678725454546,0.009576322227895869
mp-637188,Ag2O4W1,-1.3432657799404748,0.03502596999998734
mp-680246,Cs4S14Zr3,-1.319922284017856,0.0
mp-510557,Cs1N3,-0.21916690281249984,0.0
mp-770078,C1Li1Mn1O7P1,-2.176586258037021,0.01828240073909497
mp-541966,Ag1C1K1O3,-1.6444157273194435,0.0
mp-19319,Er1Mn1O3,-3.048853421836207,0.0
mp-763029,F1Fe1O1,-2.0029293622222224,0.040905479444460845
mp-768058,C1Mn1Na2O7P1,-2.2984623673193756,0.0
mp-759230,Al11Na1O17,-3.358093170182818,0.0
mp-705094,As2Co2O5,-1.4832175213888883,0.0
mp-625661,Br1H9O4,-1.1956867893749998,0.0
mp-12533,Hf2La2O7,-3.9382495045454546,0.0
mp-675418,B1H6N1,-0.3142297971874998,0.0
mp-675831,Bi2F12Pb3,-2.6853080882352938,0.0487659985294082
mp-554869,Ge1O3Sr1,-2.7386489659999995,0.0
mp-16605,O6Sr2Ta1Tm1,-3.6353531712500007,0.0
mp-752685,Bi1O4Zr1,-2.6151890141666656,0.02703777208335308
mp-761108,Bi1F1O1,-2.142221733333333,0.0
mp-554950,As1Hg3S3Sb1,-0.308061078750002,0.003601964870742158
mp-570066,C1Cl15K1Zr6,-2.1984354795543486,0.0
mp-604486,B3H18Li1N5,-0.3896276854012355,0.08896430601852304
mp-30146,Ca1F6Sn2,-3.1165733316666664,0.0048917277779550895
mp-669328,Br5Re1Te3,-0.6228959522222222,0.05871678021825414
mp-775220,Ge1O3V1,-2.161009669722223,0.05952413287499603
mp-29223,Ba3O13Si5,-3.369520526250001,0.0026108010714105084
mp-12240,Be2F7Li1Na2,-3.3306426094659964,0.0
mp-569854,Bi5Cl12Ga3,-1.2419710398749992,0.0
mp-540111,Fe1O4P1,-2.328923962023809,0.0
mp-31086,Na1P5,-0.175052238036398,0.01941673283333356
mp-765573,Li4O8Zr3,-3.1506988475555553,0.04508980299999763
mp-2482,C2Ca1,0.022217011666665343,0.015802891666666596
mp-18700,K4O4Si1,-2.226785611944444,0.0
mp-755988,Hf3N4,-1.9552555850000033,0.0
mp-561299,As2Cl1I1Pb4S6,-0.7508233032142846,0.005515644910716132
mp-771170,Fe19Li3O32Zn2,-1.6995287232142868,0.048537053839279816
mp-773663,Na2O5Ti2,-2.9824893634466796,0.014798241059276605
mp-730154,As3H2Na1O9,-1.6448468520201156,0.0
mp-4155,Ca2Nb2O7,-3.2533253629545453,0.0
mp-6760,B8La9Na3O27,-3.384835201382366,0.0
mp-561086,Ca1O3Si1,-3.428580879916667,0.0
mp-690687,Ag2F1H2I1O1,-1.058044229940476,0.0
mp-21521,Cs2O3Pb1,-1.5414917995186783,0.0
mp-13971,Nd2O2Se1,-3.3375579908125017,0.0
mp-771951,Ba3Br12La2,-2.526854423235294,0.038825301176469026
mp-768910,B2Bi2O7,-1.7465728940530285,0.07985493632565945
mp-505767,In1K2Na1Sb2,-0.5294033708419542,0.0
mp-777780,F6Li3Mn1,-3.0088301067931034,0.002198467166683216
mp-756406,Li2O5Zr2,-3.216161917824074,0.07534323480037802
mp-772891,Ba1Br5La1,-2.465183005357143,0.04473739571428936
mp-28758,F5K1Pd2,-1.8329270170312508,0.0
mp-3614,K1O3Ta1,-3.0690062274166685,0.0
mp-19138,Ba1Ni1O3,-1.8205653062499998,0.0
mp-769345,Ho3O8Re1,-3.1427820812499974,0.0
mp-22975,Cl6Rb2Te1,-1.3998860919444445,0.0
mp-554421,As1Cu2K1S3,-0.6772084049821433,0.0
mp-19436,La7Mo7O30,-2.8496328326704554,0.009407069545483053
mp-23390,Cd1Cl3Rb1,-1.6768408377499995,0.0
mp-1020123,Mg1O3Si1,-3.217181289749999,0.005957224250073523
mp-675564,La2O19Th8,-4.261656675043102,0.0
mp-540688,In2O4Sr1,-2.251849342857144,0.0
mp-756334,K2O3Sr2,-2.2383470115119044,0.05534617642857092
mp-634117,B1H3,-0.04493554343750006,0.0
mp-621945,Ge2La2O7,-3.03393136613637,0.0
mp-15556,As3Rb2,-0.5400727869999997,0.0
mp-570262,Cl5Cs3Zn1,-2.0924294248659,0.0
mp-554272,Cu3S3Sb1,-0.25873919437843745,0.022098066318680498
mp-12931,O4Sm1Ta1,-3.7021251108333324,0.0
mp-559965,As3Cl1O12Sr5,-2.760306386587301,0.0
mp-560386,Ag2Ge1In2S6,-0.6623255797348484,0.012373218672359925
mp-704536,Be3Fe4O12Se1Si3,-2.3697966592323367,0.0
mp-14853,Ba3Er4O9,-3.518964508333333,0.0
mp-559224,Al2Cl2O5Sr3,-3.3006152962499997,0.0
mp-21160,Cu2Er2O5,-2.628216156805555,0.053691071527938936
mp-754469,Er2O2Te1,-3.2641746173333317,0.0
mp-19215,Ca1Cr1O4,-2.432865504166667,0.0
mp-643954,Co1H2K1O5P1,-2.0161889430083333,0.032754571918171396
mp-752580,N1O2Rb1,-1.2540241677083337,0.0
mp-3237,Cu1F4Na2,-2.5147647871428567,0.0
mp-24822,Al3H14Na5,-0.26396645944357355,0.0
mp-754047,O3Rb3Sb1,-1.7555235141071432,0.0
mp-764783,F3Li1Mn1,-2.956796247252875,0.018346049749996853
mp-675010,Cl3Cs1Hg1,-1.477413282586207,0.0
mp-554573,O2Si1,-3.266642216666666,0.0
mp-669381,F2O1Pb2,-2.1041749782499997,0.0
mp-555203,B3Cl1O9Sr5,-3.223810565254629,0.0
mp-638685,Br3Cs1Eu1,-2.350965760586207,0.0
mp-557626,Gd2O5Ti1,-3.8291715490104163,0.0
mp-17944,Al1Ca1F6Na1,-3.8340209886909324,0.0
mp-17538,K3Sb1Se3,-1.1633411308616068,0.0
mp-625403,H1Nd1O1,-2.207660485535714,0.0
mp-555078,Ba3O9Sb2Sr1,-2.7249781123611116,0.0
mp-554225,Cs1F4Fe1,-2.787802970416665,0.0
mp-24445,H16Nd2O20S3,-1.8352127414481707,0.0024814920731842686
mp-676650,Br3Li6N1,-1.2883682184999998,0.009862210124999039
mp-775319,Li2Mn3Ni1O8,-1.8713937064614115,0.0
mp-776212,Hf2N2O1,-2.52838991,0.0
mp-551101,Bi2Ho1I1O4,-2.3489208106249997,0.0
mp-770885,Fe1Li3O3,-1.9461040383928574,0.04539324857142292
mp-646895,O2Si1,-3.2537768136458323,0.0
mp-504678,Co1O4Se1,-1.237045892473958,0.0
mp-560742,Ba2O9P2Te1,-2.855617951934524,0.0
mp-776628,Li4O12Ti1V5,-2.5327285189393938,0.10313527204574703
mp-776734,F5Fe1Li1,-2.3546676222619056,0.003887139285784055
mp-697593,Cl5O1Te7W1,-0.7361254185119043,0.03448371482892502
mp-735596,H4K4Mo3O17,-1.6673364978839282,0.0028817142854093347
mp-706654,H1N1S3,-0.028463762250000003,0.07812058424413823
mp-16194,O3Rb2Si1,-2.511854176527777,0.0
mp-11152,Pt1Sb1Si1,-0.527014355833335,0.0
mp-756632,F1Nb1O2,-3.1188573960416655,0.0
mp-752602,Bi1Br3,-1.24749776,0.0
mp-757574,Ba8In8O19,-2.2519946532857147,0.016541373698405387
mp-15573,As1O4Tl3,-1.1989752340625017,0.0
mp-28164,Ba4O1P2,-1.5086070314880946,0.00222876982132268
mp-27573,F10Na1Sb3,-2.75338950474138,0.0
mp-17493,Be3Cd4O12S1Si3,-2.58920458839674,0.0
mp-722516,H1O5P1Zn2,-2.1261311907870373,0.0014052829866623522
mp-18664,K4S11Ta2,-1.2632126791985296,0.0
mp-707530,Al1H2Na3O9P2,-2.538765688142567,0.0
mp-6434,Al1O4Rb1Si1,-3.185945704642857,0.0
mp-707170,Cu1H6O7S1,-1.3775847792916656,0.007040470499962244
mp-777483,Ge2N2O1,-0.7478704725,0.0
mp-555966,Ba1O5Ti2,-3.366605492500001,0.0
mp-27207,Cl4K2Mg1,-2.262696249428571,0.0
mp-676314,Dy10O27Ti6,-3.6285866397674407,0.09582822732560475
mp-560745,Au1N5O14,-0.6875323151249993,0.0
mp-226,Fe1S2,-0.8367770674999981,0.0
mp-707772,H16N2O13P2Te1,-1.4134464911309517,0.04475267782025332
mp-775999,Fe3Li4Nb2O16Ti3,-2.7362092920833336,0.015132167945861141
mp-676324,Li11P5Ti1,-0.8251677846253517,0.027388174705881427
mp-729903,F5H14In1O7Zn1,-1.648507120669643,0.0
mp-769176,K5O4Y1,-1.8981737558749998,0.0
mp-1014251,Hf1N2Zn1,-1.1712421325000006,0.0
mp-645717,Co3O6Te1,-1.425949927416668,0.0
mp-570321,Br1In1Sb2Se4,-0.7192294951302078,0.0
mp-28583,Cl5N1Si2,-1.3304720842187514,0.009176602421870905
mp-29992,As1F7Pb1,-2.5612429897222224,0.0
mp-554799,F4V1,-3.0393610269999995,0.0