Material ID,Compound,Energy,Hull Distance
mp-3799,F1Gd1S1,-3.2928413084375,0.0
mp-12487,Cd1Cs1Dy1Te3,-1.285000536053639,0.0
mp-758115,Li2O7P2Sn1,-2.5526461199652766,0.017169976038809764
mp-755009,Ba4F6O1,-3.8611281506818176,0.013507137272723407
mp-32736,Er2Se3,-2.0821821156562508,0.0
mp-755364,Nd1O1Se1,-2.7643240438541667,0.037404920116986894
mp-19113,Co1O3Te1,-1.397680326833332,0.03202033128571351
mp-772777,C1K3O7P1Sr1,-2.6157805671346144,0.010782510192562711
mp-558875,Cl1Ho1O5Te2,-2.2490805335648147,0.0
mp-772260,Li10O13Ti4,-2.8043652638580254,0.08515299999998852
mp-541044,Cs1O2Y1,-2.948924433024424,0.0
mp-557769,C2Ca1H2O5,-1.9551861136249997,0.03598603931249755
mp-30055,Br1O1Rb3,-1.5163286999999996,0.0026132450001693287
mp-28435,Cl4Fe1K1,-1.6362438725833328,0.0
mp-15257,Se3Tb2,-2.153581606572918,0.0
mp-23339,Br1Na1O3,-1.0204475905603445,0.0
mp-766236,Er1Gd1O3,-3.9721128565,0.006260718624945127
mp-5477,Na5Nb1O5,-2.2270089444905974,0.0
mp-41732,Ba1Cr2La2O9Ti1,-3.0683115439166664,0.04154086467855886
mp-3075,Ge1S2Tl1,-0.4570542842187528,0.0
mp-34144,Al2Mg1O4,-3.357555835714285,0.0
mp-2908,Al2O4Zn1,-3.0217996535714287,0.0
mp-771075,Li8Mn1O6,-2.030388163306513,0.030221687333332407
mp-753472,Al1Nb1O4,-3.189459526666667,0.0
mp-5380,Ca4O1P2,-1.7699430481122431,0.0
mp-24034,Al1H6K3,-0.30967047139999976,0.0
mp-555447,B2Na1O5Sc1,-3.097413184292784,0.0
mp-12355,O6Sr2Ta1Y1,-3.584383624733332,0.0
mp-23084,Bi1Cl1O2Pb1,-1.6881258549999991,0.0
mp-540946,Li1O4Re1,-1.945182416527776,0.0
mp-7090,Mg1Na1Sb1,-0.6448921533333328,0.0
mp-7223,As1Ca3N1,-1.2842973102499997,0.0
mp-566333,Fe2Mo5Na3O16,-1.9377080526591515,0.06995862844951535
mp-28030,Li8Nb2O9,-2.52065967741228,0.0
mp-570393,Cu8Ge1Se6,-0.295905144715278,0.05597175733333315
mp-553962,Li1Nb1Rb2S4,-1.4726935826041672,0.0
mp-560381,F10In3Rb1,-2.876411065892858,0.005083826785707909
mp-676023,F10Na1Y3,-4.095275302967981,0.1357545882143165
mp-773039,Li2O16Ti6Zn3,-3.0186905356172837,0.0
mp-37680,Gd1Li1Se2,-1.9167451220052074,0.0
mp-6625,Ag1La1O1S1,-2.3017779391666666,0.0012635556243369983
mp-18411,Ge1Na3Se3,-1.0688136666694885,0.0
mp-761841,Li2O7P2Sn1,-2.5284489739335307,0.017169976038809764
mp-556088,O2Si1,-2.944357194305558,0.0
mp-13816,Cs2Er1F6Na1,-3.6071807055689655,0.0
mp-644409,Al1H1Li1O5P1,-2.7368660578240736,0.0010333021300898476
mp-531820,Li4O16Ti7,-3.2596489659876533,0.00891613651330553
mp-15895,Cu2S3Si1,-0.5301286666807599,0.008995948888889771
mp-753360,Bi1F1O1,-2.190447670833334,0.0
mp-559227,Bi1Ge1Rb1S4,-0.9282268928571418,0.0
mp-675989,Bi1Se6Tl9,-0.4613209173046826,0.0
mp-562977,Nb1O9Rb1S2,-2.266099076923077,0.0
mp-557915,Al1O4P1,-2.898382981051587,0.0
mp-557285,Cl1Ho11O48Te16,-2.4911674185087715,0.0
mp-679930,Cu3I2P15,-0.12791109098214193,0.0
mp-774424,Li1Mn1O4V1,-2.3080218441091955,0.0
mp-552806,Ba1Bi1Cl1O2,-2.4194328625000003,0.0
mp-1009127,Mg1O1,-2.250805495,0.0
mp-554236,Ca5Cl1O12P3,-3.3082476356632653,0.0
mp-6046,C3Na4O11U1,-2.416975955816695,0.0
mp-777422,Dy1H1O2,-2.8681279846875007,0.0013657565625195822
mp-14835,Nd4O7S3Si2,-3.244179096406249,0.0
mp-769632,Cr1Mn7O16,-1.7731513139798842,0.05334189427082118
mp-23005,Bi4Pb1Te7,-0.33453863249999927,0.0
mp-7571,F6K1Nb1,-3.4187415053749994,0.0
mp-567407,Br9C2Dy5,-1.9402591884895815,0.0
mp-31134,Cl3Pt1,-0.5029172414583343,0.0
mp-531793,Al2Mg1O4,-3.3343112530357133,0.0
mp-768120,C1Ga1Na2O7P1,-2.354301916473897,0.0
mp-3817,Au5F21La2,-2.264050092857143,0.0
mp-759711,C1Cu1Li1O3,-1.614428350925925,0.04289334979173157
mp-28288,Ba1Ge2O5,-2.44397928828125,0.03699264910592115
mp-772991,Bi2Er2O7,-2.550491020227271,0.09658756625001498
mp-1019600,Ce1O8Zr3,-3.7360839616666675,0.042293567083357075
mp-6757,Ho4O7S3Si2,-3.165723108183588,0.0217801683844967
mp-4657,Ga1Li5O4,-2.214770558416666,0.0
mp-764556,F13Fe7Li5O3,-2.4454530125595233,0.04863316053569936
mp-760510,Bi2O5Sr2,-2.362127188611111,0.0
mp-473,Na3P11,-0.23686178741584588,0.0
mp-641117,Fe1La5O17Ti4,-3.584278209290123,0.02256282380631618
mp-30244,H2Mg2O3,-2.2881549051785712,0.02008845857143474
mp-7774,Au1Na2Sb1,-0.5493329924999983,0.0
mp-762034,Co2Li2O9P2,-2.1620048928055553,0.07672964918224352
mp-6892,C4Mg2Na6O16S1,-2.2565017140494943,0.0
mp-541677,As1Cd2F1O4,-1.8410765990624998,0.0
mp-753748,Cu1Li3S2,-1.1550678431249999,0.0
mp-556737,O6Pr6S7Ti2,-2.945746174960316,0.005750450898320973
mp-5479,Al1F4Rb1,-3.6378372362500007,0.0
mp-557347,As3Ca2Cl1O12Pb3,-2.1598933283333333,0.0
mp-29806,Cs2I6Pd1,-1.0714388373180077,0.005466334166665889
mp-762351,Li4O16Ti7,-3.2368119361728387,0.00891613651330553
mp-540540,Br3O1Pa1,-2.382637998000001,0.0
mp-18547,Gd1Ge1Na1O4,-2.8383081880788175,0.0
mp-35220,H1N2P1,-0.5503700645833334,0.0
mp-27409,Br3Ni1Rb1,-1.2956636852499996,0.0
mp-39823,Al6C1Na8O27Si6,-3.022883246795079,0.0
mp-722902,H2Li1N1O3,-1.2914778863690475,0.028842257792571453
mp-28828,Cl8Fe1Li6,-1.9033163093333334,0.030932970168829142
mp-16947,Al1Ge1Li1O4,-2.6849093014285703,0.0
mp-30959,H1Li1S1,-0.8759067673263891,0.0
mp-557151,S1Zn1,-0.9506271286383932,0.0
mp-29043,Hg4I3Sb2,-0.36704263569444723,0.0
mp-32310,Ba3Ni1O9Ta2,-3.1592229372500005,0.0
mp-559642,Al9B1Ca1O18Zr1,-3.444491409138889,0.0031420015000705346
mp-557705,F3O2Os1,-1.8328655941666667,0.01980220739580159
mp-5040,Ca1O5Te2,-2.095289580104172,0.0
mp-639733,O2Si1,-3.0216342501388898,0.0
mp-760080,Ce1O20Th9,-4.190251964333333,0.0022647923333143655
mp-743762,Al4Ca2H14O31Si8,-2.0746618661228817,0.558292297033876
mp-770557,F2Mn2O7P2,-2.262890781934445,0.019598339359151742
mp-755898,Er3O7Ta1,-3.881733791022727,0.0
mp-558188,Ag1As1Hg2O4,-0.8239182190624987,0.0
mp-1019269,H3I1Sr2,-1.0069569880555556,0.008038780000002799
mp-696403,B1H1O2,-2.022221216354153,0.0
mp-771647,La2O7Pt2,-2.2837338737499993,0.0
mp-765552,Co1Li2Mn1O4,-1.8888839636997128,0.024546268749976674
mp-24811,H2K1O9S2Ti1,-2.087856614705556,0.05564145499184292
mp-555407,Nd6S17Si4,-1.6895383467708345,0.0
mp-556296,Ba1S3,-1.3900031949999998,0.0
mp-4112,O4S1Tl2,-1.6748482360416657,0.0
mp-555282,Cl7Ga2N5S5,-0.5799712579276314,0.08037942076105378
mp-568735,C1Si1,-0.20347551319444473,0.0
mp-16037,Dy2O2Te1,-3.333047200833333,0.0
mp-561326,F1Lu1O3Se1,-2.8586540156684035,0.0
mp-550117,O4Se3Sm4,-3.1662636838210223,0.0
mp-566301,As3Cl1O12Pb5,-1.751671600119047,0.0
mp-583463,Cl3Fe1,-1.1646855233333344,0.0
mp-561902,Ag3Cs1S2,-0.4984883217708334,0.0
mp-18300,Al1Ca3Sb3,-0.9172372214285746,0.0
mp-763729,Fe3Li3Nb1O8,-2.1232274753333322,0.08397359500006256
mp-772137,Er2O7Sb2,-2.6588696619696988,0.08575141499992321
mp-643010,Cs2H4Pt1,-0.4831147728571433,0.0
mp-733455,H6Li3Rh1,-0.48689406799999946,0.0
mp-743715,F5H10N3Ti1,-1.1631115030701753,0.37727886136602473
mp-22899,I1Li1,-1.4189081241666663,0.0
mp-760457,B1O3Y1,-3.446487789416666,0.0
mp-774251,Fe1Li1O4P1,-2.435409572738095,0.0
mp-12237,Ho1O14P5,-2.833532950708333,0.0
mp-756134,O1Se1Zr1,-2.633278653854132,0.03624691500166103
mp-642398,O6Rb1S1V1,-2.1989239052777774,0.0028109816681060173
mp-697807,Li1Mn4O24P7,-2.4742018343765975,0.022896791249041353
mp-556760,Nb2O15P4,-2.7631943693367345,0.009462804142872625
mp-763935,F5O7V6,-2.7508352113194428,0.024635055555381296
mp-769612,Li6Mn3O24P6W1,-2.545193308094828,0.07922368246316189
mp-554089,O2Si1,-3.2654390791666668,0.0
mp-757608,H4Hg2O9P2,-1.7207067620833343,0.014103311813724751
mp-707096,H7K2O9P3,-1.8340667935561226,0.008861413556962208
mp-3338,Ga1Na1O2,-2.2145322465948265,0.0
mp-23866,H2O4Se1,-0.7513282645089286,0.0
mp-28264,H3O2Rb1,-1.4552341425000002,0.0
mp-555866,Be4C6K6O19,-2.3206786217428568,0.0
mp-6358,Na1O5P1Ti1,-3.000936084621049,1.876076943352345e-05
mp-763299,F5Ni3O1,-2.0025047951388886,0.06641699495370229
mp-28263,H3K1O2,-1.461477593499999,0.0
mp-557387,Nb1O6Sr2Tm1,-3.4504368510000005,0.03628549581254035
mp-561258,S1Zn1,-0.9618715809062508,0.0
mp-776084,Ba1O3Si1,-3.2268816153333355,0.0
mp-32591,Al2O3,-3.3668722786249994,0.0
mp-543028,O3Te1Tl2,-1.023674403541662,0.0
mp-40066,Ca1Fe1La1Mn1O6,-2.6951170492931014,0.0
mp-684489,Bi1Li1O7P2,-2.511923672965368,0.008196213030155648
mp-10233,B1Ca2F1N2,-2.080559622361111,0.0
mp-557022,Cl2O11Sb8,-1.416506356190477,0.0
mp-19496,K1O8Sb1V2,-2.235827320604166,0.0
mp-4152,Co1Ga2S4,-0.8199897246428566,0.08628141154761806
mp-7436,Cu1K1Te1,-0.7303873582222226,0.0
mp-18958,Mo1O6U1,-2.7685837062500003,0.0038899214062291243
mp-770406,O6Sm2W1,-3.276407358888889,0.0
mp-706291,B8Ca2H2O15,-2.836206610540125,0.0
mp-753727,I7O1Y3,-2.052828415795455,0.0668258636363429
mp-42089,C3F4Gd2K4O9,-2.8345023781022736,0.0
mp-770702,Al1Fe1Li2O4,-2.410456114583332,0.016841030938335333
mp-541057,Rb4Re6S13,-1.0522620654619559,0.0
mp-560513,Cl5Gd3O6Si2,-3.2151930398437516,0.0
mp-770544,Al1Cr1Li1O3,-2.6067784882638896,0.10284221988173374
mp-767498,Li10Nb6O42Ti11,-3.113298498043479,0.033833376883960174
mp-555463,F13Rb1Th3,-4.351016190882353,0.0009385693138112321
mp-558834,B5Br1Eu2O9,-2.992989901078433,0.0
mp-775906,O3Y2,-3.8517962037499998,0.0
mp-768295,Ba2I7Y1,-1.8928981714166664,0.031066457500000054
mp-628665,Al1Bi1Cl4Te1,-1.543896130238095,0.0
mp-756006,Li1S1Sb1,-0.9531049802777769,0.026359910000012032
mp-18751,Mn2O4Zn1,-2.027593926995074,0.0
mp-3897,P1S4Sm1,-1.3868114524305557,0.0
mp-753781,Eu1Hf1O3,-3.6576371240000016,0.0
mp-568136,Br3Rb1V1,-1.6535258365833347,0.0
mp-570044,I4Nb1,-0.8074419275000047,0.0
mp-556517,K2O2Pb1,-1.5344774753999986,0.0
mp-540416,Mn1O7P2,-2.3711834619716745,0.0
mp-1598,Na3P1,-0.4616042232440476,0.0
mp-555151,S1Zn1,-0.9617112069419643,0.0
mp-29033,Br1Cl14P3,-1.067014684166667,0.0
mp-23023,Br1La1O1,-3.3657317516666674,0.0
mp-706489,B2H1Na1O4,-2.463882469126257,0.010878701931997803
mp-765544,F11Li4O1V3,-3.11706354254386,0.031487022646636456
mp-542222,H16O20S3Tb2,-1.8389794073373986,0.01051871701219012
mp-540822,Cs3I9Zr2,-1.4972741763546833,0.0
mp-770570,Dy2O6W1,-3.336516271388888,0.0
mp-1008786,Mg1Te1,-0.9855122625000021,0.0
mp-18466,Nd2O4Se1Si1,-3.3784845499804685,0.0
mp-28571,Br5La2,-2.390928554285714,0.0
mp-1019554,B5Ba1Na1O9,-2.9342000490445397,0.0
mp-650928,K3Nb7O19,-2.9671266599224135,0.0039415981567155565
mp-676014,Al11Na1O17,-3.354191803409631,0.0
mp-29756,B3O5Rb1,-2.806089735972222,0.0009173686729376919
mp-1347,P4Th3,-1.6134877231292535,0.0
mp-4068,Ge1Na2S3,-0.9927135676562505,0.0
mp-556797,K2O9Si3Sn1,-2.8799624708000002,0.0
mp-684022,Ge1La1Se4Tl1,-1.2431061098511915,0.0
mp-553970,Bi1Cs1Ge1S4,-0.9410111903078808,0.0
mp-647579,Br2Zn1,-1.1133693314583344,0.0
mp-574138,As1Cs2Te3,-0.8308821459770108,0.0
mp-28020,Al1Cl4Cu1,-1.3191863566666662,0.0
mp-775271,Cr3Li2O8W1,-2.340427873333333,0.004961218571347713
mp-29514,F4H1P1,-2.400424685555556,0.0
mp-696225,H7K3O10P2,-2.000752575558441,0.011617766515203763
mp-17904,Nd2O5Ti1,-3.656383466145833,0.0
mp-554016,F9K4O4P1Ti2,-3.3627021398500005,0.0
mp-3347,Be2O4Si1,-3.1773503819047613,0.0
mp-722832,F5H3N1P1,-2.0434938990892855,0.0
mp-4510,Dy1Ni1Sb1,-0.9640843138888867,0.0
mp-12903,Ag1Te2Y1,-1.096182747500002,0.0
mp-557689,Al2B2Ca1O7,-3.2649800075694437,0.0
mp-24141,Cs1H1O4Se1,-1.5135409678963978,0.0
mp-13252,B4O7Sn1,-2.3892305791666666,0.0
mp-675022,Cl3Cs1Pb1,-1.8750047709310416,0.0
mp-755046,Ce3O12Y4,-3.7708052060526294,0.067375549473669
mp-570290,Cl3Mn1Tl1,-1.412599722252874,0.0
mp-767432,O31Sr16V8,-2.977232545780303,0.0
mp-27199,Au1Br1Se1,-0.5188343753645827,0.0
mp-530399,Al5Li1O8,-3.351331897559523,0.0
mp-505077,H9Na1O5,-1.3348883898534487,0.0
mp-559770,Ga2Nd4O9,-3.3286145254166666,0.0018225200832735786
mp-769462,Li2Nb6Ni1O18,-2.669591151172841,0.0793910332175761
mp-759382,Li2Nb6O30Ti7,-3.170066898722223,0.06539277355550692
mp-630773,Cd1Ga1In1S4,-0.8409946728571432,0.08428503107142823
mp-7523,N2Te1Th2,-2.1079638134999983,0.0
mp-35035,C1K1N1,-0.3748221351666672,0.12820079104166746
mp-14333,Al1O4Ta1,-3.4029435533333334,0.0
mp-10785,Lu1Rb1Se2,-1.986724074010418,0.0
mp-27629,Cl9Cs3Sb2,-1.8169625845566502,0.0
mp-753774,K1O2Tm1,-3.1235508059375015,0.0
mp-12183,B5K1O8,-2.8424331445059527,0.0
mp-686001,Ce2Nd2O7,-3.641696569545458,0.048389709318155644
mp-767137,Li3S27Sb17,-0.6316468016489349,0.013978702234038685
mp-689929,Li1O4P1V1,-2.4984323166666673,0.009706593512077635
mp-13694,Cu1O2Pr1,-2.5854939281249996,0.0
mp-27227,Ag3Li1O2,-0.8105092018055556,0.0
mp-19384,As1Ni1O3,-1.5977658111111097,1.1039224685835098
mp-2552,O3Te1,-0.9957230950000007,0.0
mp-568598,Cu2Hg1I4,-0.3492286125000013,0.0
mp-672326,In3Ru1,-0.23566952000000185,0.0
mp-677288,Al1H21Mg5O17,-1.7738009575852276,0.047103068409025894
mp-560016,Na1Nb2O8P1,-2.9060372583237544,0.0003016375259369634
mp-768605,Ho2O5Ti1,-3.7850311920833306,0.0
mp-31110,Ga1O6Sm3,-3.3913744889999977,0.0
mp-5857,Al2Mg1O4,-3.2761421028571425,0.0
mp-13063,O3Tb2,-3.872108411000002,0.0
mp-540924,I3Nb1Te1,-0.6458100005000006,0.0
mp-641534,Cu1Nd3Se7Si1,-1.6324537111588537,0.0
mp-770341,Al1Cr3Li4O8,-2.5657406120833324,0.007995678595325906
mp-27791,Be3O4Sr1,-3.113538893333333,0.0
mp-27514,Cl4Fe1Na1,-1.5308185752298844,0.0
mp-763174,F1Li2O2V1,-2.620571425277778,0.006646839166824255
mp-662588,C6Cl7O6Ru2Sb1,-1.1613037828409085,0.04796790047357453
mp-10381,Cu1K2Sb1,-0.40525860937500013,0.0
mp-680085,S1Zn1,-0.9617558872179369,0.0
mp-560022,Ba9C1N10Nb2O1,-1.1662251984782623,0.0
mp-648069,Ca2Fe1Ga1O5,-2.615764179583334,0.0
mp-675223,Ag2La4Se7,-1.7615320034415065,0.08748072384616389
mp-667283,Cl1O15Re3Sr5,-2.7759985963368066,0.0
mp-753299,Ag1F2Li1,-2.061881068541666,0.0
mp-18299,F3U1,-3.7440661331250005,0.0
mp-24018,As1Ca1H1O5Zn1,-1.9805252906944455,0.0
mp-559982,Al1F7Na2Zn1,-3.236293873691223,0.003321420909058888
mp-27366,Cl3K1Ni1,-1.4690116729166676,0.0
mp-560110,Ba1O6Ti1U1,-3.6226902787037036,0.0
mp-13374,La1O3Tm1,-3.9637136730833324,0.0205502696250484
mp-753995,O3Tm1Y1,-3.943942487416667,0.0027986568750357323
mp-31837,Fe1Li1O7P2,-2.483130972386363,0.0
mp-10182,Li1P1Zn1,-0.6558191498809526,0.0
mp-352,Hf1O2,-3.914961416666671,0.0
mp-760582,Ag1F3Li2,-2.4071485093055536,0.019543975555609272
mp-40519,Na3O30Sr7Ta3Ti7,-3.394159670089425,0.00840634609986921
mp-18243,K2O9Si3Sn1,-2.871413820316667,0.0
mp-673845,F1Nb1O2,-3.136051461874999,0.0
mp-756705,Al1O3Y1,-3.6799238802500005,0.01866936360003706
mp-773491,H2N1O3Rb1S1,-1.4505775717187488,0.04328942205679143
mp-542201,Ba3Nb2O8,-3.0496245850000014,0.0
mp-1020015,B3Li2O8P1,-2.7935609190178567,0.0
mp-4534,C1Na1O2,-1.882635449137931,0.008322058098959806
mp-756565,Li2O15Ti7,-3.298556400052084,0.07428494609749355
mp-667360,Cs1F4O1Sb1,-2.754865135240148,0.0
mp-768976,Cs3O3Sc1,-2.190306087857142,0.0
mp-776470,Hf3N4,-1.973946385357144,0.0
mp-5632,As1Dy1O4,-2.8505803649999994,0.0
mp-550908,Hf1O3Sr1,-3.7152313169999984,0.0
mp-23634,Cl1F3K1Sb1,-2.573754915791667,0.0
mp-569810,B1I1N2Sr2,-1.4935992083333325,0.0
mp-554930,Ag1Nb2P1S10,-0.8957210633078238,0.00190110199772978
mp-542814,O2Si1,-3.2636180062500006,0.0
mp-15503,As4Ba4Ti1,-1.3023734890740728,0.0
mp-769284,Dy2O2Se1,-3.473812589812499,0.0
mp-3042,F6K2Si1,-3.4319177945555555,0.0
mp-6064,Mg1O6Pt1Sr3,-2.6214501309090896,0.0
mp-769028,O9Sb2Si3,-2.7170564763392866,0.009830718749945788
mp-772920,Li8O7Ti2,-2.427618815196078,0.08880089382352327
mp-772863,Ge2Na2O5,-2.127355284372605,0.00927495892854561
mp-768585,Ho1O9Ta3,-3.327530848615385,0.0012349192307604757
mp-28773,Ga2Na4S5,-1.2395231376665359,0.0
mp-557322,Bi4Br2O9Te2,-1.4451081535784311,0.047651037352708536
mp-554645,F7K3N2O6Sb2,-2.1108234529499996,0.04918560043514617
mp-18502,Ba1O9Si3Sn1,-3.0899770444642862,0.0
mp-30137,Gd3O8Re1,-3.266704297083334,0.0
mp-759234,Cu1F6Li3,-2.6083827505,0.0
mp-32750,Cu1I1,-0.2628147337499982,0.0
mp-556778,Ba1F6Te1,-2.9885141318749984,0.0005982806249935635
mp-267,Ru1Te2,-0.40611876333333896,0.0
mp-555097,Cl5O6Si2Tb3,-3.23283657078125,0.0
mp-23453,Br7Hg6Sb5,-0.45881335277778135,0.0
mp-558592,Br2O11Sb8,-1.6942209656547613,0.0
mp-6783,Li1Na1O4S1,-2.261676205191913,0.00024219988092763093
mp-555119,F7Sr1Ta1,-3.7804710566481483,0.0
mp-17272,Cu1Nb1O3,-2.2969955079999984,0.04451279262486167
mp-754936,Al1Dy1O3,-3.715403452833332,0.012788190899858876
mp-39010,Cr2Mg1O4,-2.4238779514285715,0.0
mp-17586,Cd1O7S2,-1.7763501252499991,0.0
mp-24708,H8O8S1Zn1,-1.4720883348958327,0.0165085648611137
mp-14389,Al1Na3O23P8,-2.683338286036594,0.0
mp-540981,Cs1H1O4S1,-1.9533868790578812,0.0
mp-754157,Al1In1O3,-2.6779105092499997,0.0348233219999905
mp-684638,Al2S3,-1.2334293786874995,0.0
mp-27373,Cl1F1Sn1,-1.7470898066666674,0.0
mp-767365,O11P4Sn1,-2.4362643481919637,0.0
mp-3807,Al2Cd1Se4,-1.0294422591964287,0.0
mp-556378,Bi1Cl1O3Se1,-1.4758783239322912,0.0
mp-542791,Cl1N1Zr1,-2.108393888750001,0.0
mp-1666,S5Th2,-1.988697986294641,0.0
mp-13680,B1Ba1F3O1,-3.505891125486112,0.09618781702218844
mp-18440,As4Nb1Rb7,-0.5847745498958332,0.0
mp-14364,As1Cs2Li1O4,-2.1021526311494245,0.0
mp-773363,Li4Mn3O8W1,-2.128813767320402,0.0964834457307222
mp-695383,H1K2N1O6S2,-1.7788680370624999,0.022989087228503752
mp-14243,Cd3O6Te1,-1.5017857496666651,0.0
mp-624234,O5Pb2Te1,-1.567719574427083,0.0
mp-774379,Cr4F11O1,-2.8820501891406245,0.032852116744818805
mp-561434,Hg3Rb2S8Sn2,-0.7919299935000007,0.0
mp-6899,Be1Ca1F1O4P1,-3.317916633705357,0.006366962656846109
mp-34730,Fe1O2Zn1,-1.6817762078571425,0.12370862999998855
mp-626229,H4O5S1,-1.4534098299374996,0.0
mp-540878,La3O9Re2,-3.091269213750001,0.006974871428554812
mp-1019564,Ca6Ge2O1,-1.070636002083333,0.08202194249999906
mp-762289,Li2O8P2W1,-2.5608428958424905,0.006784726537641352
mp-776424,Cu1Li1Na2O7P2,-2.353549695527188,0.08599178296715565
mp-18814,C1Mn1O3,-2.010866436586207,0.0
mp-555322,Cl2Eu2O3Si1,-3.1554005484375,0.0
mp-763431,F5Li1Mn5O3,-2.487303970838465,0.07958742928567528
mp-1019566,Ca3Ge5O14Zn1,-2.4854099998913033,0.02291340205799486
mp-560815,Al1O4P1,-3.09192277925926,0.0
mp-772272,Cr2Li2O7,-1.801983743560607,0.011075124886345251
mp-545482,O3Pd1Se1,-0.7012520318124998,0.0
mp-560708,O2Si1,-3.2583288449999994,0.0
mp-770733,Al1Fe1Li2O4,-2.4884887261458326,0.016841030938335333
mp-555770,H4N1O4Rb1S1,-1.4547727225000004,0.005373880904406421
mp-706912,H1K2N1O6S2,-1.7733796458125,0.022989087228503752
mp-29476,Cu3Sb1Se3,-0.3311704127901786,0.03530507321428563
mp-4081,Cu3Se4Ta1,-0.7507350924218752,0.0
mp-773785,K2O4Te1,-1.786962599095238,0.0
mp-680114,Cd1I2,-0.8586863503030294,0.0
mp-13981,K1O3P1,-2.6695930398785714,0.0
mp-15557,As3Cs2,-0.5814408654999994,0.0
mp-558285,Bi1Ga1O3,-1.7245785964999982,0.0023703998749951436
mp-12364,Ba1Cu2Se4Sn1,-0.9756099205468742,0.0
mp-6163,Cs2F6Ga1Na1,-3.062111911991379,0.0
mp-555954,Ba1Hg1S4Sn1,-1.1406450475000003,0.0
mp-10778,Pr1Rb1Se2,-1.9587974392968746,0.0
mp-777457,F4Fe1Li2,-2.8523954841666663,0.013517847857180243
mp-14345,Ba1O7P2Zn1,-2.8351436774350627,0.0
mp-572510,Ag1K3O2,-1.1901460761527776,0.0
mp-541152,Al2H4O9Si2,-2.6119406493382353,0.012669862500024213
mp-555410,S1Zn1,-1.0588337728125001,0.0
mp-28562,As1Rb1Se2,-0.854188581484375,0.0
mp-18921,Co1Na1O2,-1.569213424762931,0.0
mp-7773,As1Au1Na2,-0.596101208124999,0.0
mp-570597,Ge1I2La2,-1.4655110310000006,0.0
mp-554199,I1O6Rb1Sn1,-1.521272530555555,0.0
mp-557450,Na2O3Pt1,-1.3577936162499995,0.0
mp-707710,C3H24Mg1O23Sr1U1,-1.7139355127437101,0.016581487267511068
mp-600005,O2Si1,-3.2525175112499998,0.0
mp-30041,Bi1Rb1S2,-0.9127262273437466,0.0
mp-560826,O2Si1,-3.2560754505555565,0.0
mp-18880,Er1O4V1,-3.173949278333332,0.0
mp-556783,C1Li1Na1O3,-2.1702013609762134,0.0
mp-20210,Ag2O2Pb1,-0.8219770171666667,0.0036462228000008422
mp-17552,Ca1O3Si1,-3.2733014276666665,0.0
mp-697652,H4Hf1O9P2,-2.2354777934970134,0.0074393915624577645
mp-23164,Bi2Se3,-0.6745301504062503,0.0
mp-776061,Li4Mn3Nb2O16Ti3,-2.8330372113259434,0.03881857564702175
mp-696272,H1Hg1N1O4,-0.877913758571428,0.0
mp-569561,Cl4Te1,-0.6397680984999994,0.0
mp-29374,Ga1K1Sb4,-0.3489942791249927,0.0
mp-19228,K2Mn1O12V4,-2.3904308806542636,0.0
mp-29172,F4Se1,-1.7626313333125005,0.0
mp-754494,Ba1Br5La1,-2.5058847150000005,0.04473739571428936
mp-557426,Ca1F5Mn1,-3.4118098272044386,0.0
mp-27260,Al1Cl4Cs1,-2.008520612916667,0.0
mp-756793,Li2Nb4O12Zn1,-2.8089811050877187,0.0350678048026326
mp-23737,H3K1Mg1,-0.35735251160000026,0.0
mp-555618,F5Mn1Na2,-2.9320740838362074,0.0
mp-18625,K1P1Se6,-0.40420073795014844,0.0
mp-684106,Li1O7P2Sb1,-2.4672423667045447,0.016046324166819916