Material ID,Compound,Energy,Hull Distance
mp-11023,Au1O2Sc1,-2.5643337006249993,0.013195897187483485
mp-23576,Cl1Cs1F3Sb1,-2.5972635191091955,0.0
mp-758571,Al11O17Tl1,-3.3083794923563223,0.0
mp-647343,Br7P1,-0.38121859880952336,0.0
mp-4421,La1O4Ta1,-3.5483856966388863,0.0
mp-30077,Ga1K2Sb2,-0.4889918421499992,0.0
mp-696512,H4I1Na1O2,-1.3135819039224135,0.01508233875000009
mp-557517,Cu1Ge1S7Tb3,-1.731685516458332,0.0
mp-558056,Al1O4P1,-3.1069065787738093,0.0
mp-7324,Be1K1O4P1,-2.8864031809846935,0.0
mp-1014168,Br3Cs1Pb1,-1.6782536605862066,0.0
mp-774726,C6Cu2H26N12O5S7,-0.4529607525107759,0.03595768402137096
mp-650015,Cl9N7P6,-0.8851385392207792,0.0019581070909096806
mp-697264,Cd1H2O4Se1,-1.3415460559179682,0.017157842915371813
mp-552729,I1K1O3,-1.0659532537499985,0.0
mp-774479,Ca2Li1O10Ta3,-3.313614947552084,0.06862798027306205
mp-560790,Bi1Cs2F6Na1,-2.9362366915689657,0.0
mp-28812,Ag5Bi1O4,-0.6617728908333305,0.0
mp-1019514,Al1O4P1,-3.034273233829365,0.0
mp-7405,Al1O3Sm1,-3.695213139999969,0.0
mp-775849,N2O1Zr2,-2.242564508000001,0.0
mp-30971,Cl1Cu1Te2,-0.634169720208333,0.0
mp-36395,Cd1La2S4,-1.937555057142857,0.09061710000004274
mp-28712,Hg6O7Si2,-1.3988335053333383,0.0
mp-29591,Cl1O4Sb3,-1.396802385937498,0.002260333124999958
mp-754212,Ba1I6Sr2,-2.0111505492592587,0.010380434166666872
mp-18687,F5Nb1,-3.357369760416667,0.0
mp-21609,Cu1N1Sr1,-0.5551026448611114,0.0
mp-4709,Nb1O4Pr1,-3.500152501944443,0.0
mp-28797,H1Se1Y1,-1.6599602292708322,0.0
mp-675821,O7Ta1Y3,-3.6228813265757576,0.0
mp-754637,Cu1Na1O7P2,-2.212402981196819,0.0
mp-685810,As1F7N2,-1.53867417285,0.0
mp-768207,C1Li2O7P1Sb1,-2.2361494513591267,0.029996918842365144
mp-32594,Se3Sm2,-2.173472364187501,0.0
mp-568191,Cu1Lu1Se3Sr1,-1.764532271449653,0.0
mp-559695,Bi1Cs2F6Rb1,-2.919023998836207,0.0
mp-17371,Er1F5K2,-3.7756376905625,0.0
mp-766979,O9P2Sn4,-2.182591687452381,0.0059337304166210934
mp-23162,Cl2Zr1,-1.8786056900000005,0.0
mp-1018096,Ba2F1N1,-1.9080062193750003,0.008212079374984693
mp-7017,N2Na1Nb1,-0.8898313291379312,0.0
mp-15953,P2Rh1,-0.6409315105555559,0.0
mp-19443,O3W1,-2.1817198006249994,0.0
mp-762643,Fe1Li1O4Si1,-2.5069227890476182,0.001767453928728965
mp-755225,Li8O6Zr1,-2.4366478865555554,0.0005859140000206745
mp-766250,Er2H16O20S3,-1.8415357083993904,0.01712368719521485
mp-2612,Ge1Te1,-0.015159295000000128,0.0
mp-542121,Nb2O23Rb4Si8,-3.0933380754729725,0.0
mp-561877,F3Ho1,-4.4958137168749985,0.0
mp-569059,Hf1I4,-1.171018201999999,0.0
mp-3159,Al2Cd1Se4,-1.0754883984821428,0.0
mp-18771,Co1O6Sr2W1,-2.595678251999999,0.0
mp-4515,Ag3S3Sb1,-0.19758472191964163,0.0
mp-18568,Ge2Na2S5,-0.9517786072509532,0.0
mp-29215,O13P2Te4,-1.926376167813282,0.0
mp-18956,Cr1O4Sm1,-2.756056834999999,0.0
mp-556531,B1Li1O6Si2,-3.0585633838749997,0.0
mp-13514,B1Nd1O3,-3.4663121320833326,0.0
mp-27880,Cl7Nb3,-1.41899573675,0.0
mp-757115,K1O13Sb5,-1.8896570030131579,0.0
mp-5965,Ga5O12Tb3,-2.8461745602500015,0.0
mp-27477,F4O1Tc1,-2.1274307380555544,0.0
mp-696804,H1Rb1S1,-0.8963512409374997,0.0
mp-12725,Ag1Nb1O3,-2.145198296833332,0.06373311212522878
mp-540993,Cl13Mo6Na1,-1.4185449148275864,0.0031919765000036904
mp-559270,Ba4O1Rb1Sb3,-1.4359564433333327,0.0
mp-764760,F3Li1O1V1,-2.965672885763889,0.006431431706131363
mp-27141,H8O9P2,-1.7847650041008778,0.0017619556578940894
mp-759750,Bi1F1O1,-2.1482542324999994,0.0
mp-572726,Cl7O1Sb1Se1,-1.1134484251093753,0.0
mp-7089,K1Mg1Sb1,-0.6328613440833335,0.0
mp-558826,Be1F6Ho1K1,-3.897563671916666,0.0
mp-559313,O2Si1,-3.2587341937499996,0.0
mp-15012,B1K1S2,-1.1253750374374991,0.0
mp-7547,Ba1Se2,-1.5782883393750022,0.0
mp-773047,K1Nb2O8P1,-2.9021679126577373,0.01719588229299755
mp-23022,Cl1K1O3,-1.1536884688499995,0.0206739431249904
mp-559540,Cl1O4Rb1S1Zn1,-2.0351030434375,0.0
mp-555321,Ba1F4Ni1,-3.1902275816666665,0.0009227233333260662
mp-568937,Br9Cs3Y2,-2.3072207169376022,0.0
mp-28143,H8N2S5,-0.474435803833335,0.0
mp-560870,B2Ba1Ga2O7,-2.761160351319443,0.0
mp-642817,H1K1O1,-1.552028553916666,0.0
mp-556633,F6Na3V1,-3.067501102965518,0.0
mp-1001831,B1Li1,0.2137115762499997,0.0
mp-1019512,Al1O4P1,-3.0325459495238087,0.0
mp-704236,Mn1O3P1,-2.4557914522446955,0.32240412843623895
mp-569465,Cl18Cs2Nb6Pb1,-1.7967812559003835,0.0
mp-6326,Al1Li1O4Si1,-3.201823282261905,0.0
mp-754599,Ba1O4Tm2,-3.6707155010714336,0.0
mp-20778,Be2Dy2Ge1O7,-3.2839207167361093,0.0
mp-5803,Nb1O5P1,-2.930779448511905,0.0
mp-541037,Cs1Cu1O1,-1.0807392183333324,0.0
mp-31953,Li2Mn1O7P2,-2.634828491876197,0.0
mp-23017,Br3Cs1Cu2,-0.9913679858333353,0.0
mp-556477,Lu2O3,-4.068142224583332,0.0
mp-756034,Na1O2Sm1,-2.9553542500000027,0.0
mp-773188,B1Mn1Na3O7S1,-2.2329733966335104,0.05968744807639909
mp-28542,Cl6Er1Na3,-2.366377953465517,0.0
mp-676167,O41Tb14Ti10,-3.636159742294906,0.08998525249999366
mp-757336,Hf2N2O1,-2.570732622749998,0.0
mp-6059,Cs2F6K1Y1,-3.590207551052873,0.0
mp-29463,Be1Li1N1,-0.9938989936111113,0.0
mp-561113,Ag2Bi1O3,-0.9221700880555547,0.0
mp-768263,Ba2La2O5,-3.3630083443055563,0.05164095500002159
mp-647116,Cl4N1O3Re1,-1.130641090555555,0.002884443528742114
mp-733598,Cl1H9N2O2Pt1,-0.8025215834999992,0.05283390771364888
mp-761033,Hf3N2O3,-3.1097116059375,0.0
mp-767597,F5Li1Mn1,-2.6768547155377678,0.015138145505959853
mp-740714,B5H2Li1O9,-2.5690096475980386,0.0
mp-505274,Na2O4S1,-1.9946894482589284,0.0
mp-557842,Al1O4P1,-3.1103209198888893,0.0
mp-568328,Fe1P4,-0.30834080138095177,0.0
mp-23426,Al4Bi2O9,-2.717503467333332,0.0
mp-775205,H1Li3Mn1O8P2,-2.5107813877311163,0.038188642554144774
mp-34116,Mg1S4Tm2,-2.081981545119048,0.007162337142852542
mp-558864,Cr1F6Hg1,-2.3101426984375015,0.0
mp-772878,Ba2I6Sr1,-2.038217885185185,0.013791629444444453
mp-583297,Ba6Nb4O3S13,-2.119045844399039,0.0
mp-571555,Cl1In1,-0.9075428437500008,0.0
mp-642736,H5K3Pd1,-0.33447922722222184,0.007855984444444401
mp-28877,Cs2Sn1Te4,-0.8681514707183905,0.0
mp-772296,Cr1O4Zn1,-1.7453697804166666,0.0
mp-1007823,B1Ga1N2,-0.674734636666666,0.3836329187499994
mp-22375,In2S3,-0.7211176826874975,0.0
mp-3777,Ba1N2Si1,-1.3062351931250014,0.0
mp-640057,Cl5K2N1Os1,-1.1885595780555542,0.04415994098556316
mp-558393,Cl7Nb3O5Rb2,-2.4613575775735295,0.0
mp-554279,Cl1Hg2O12S3Tl3,-1.5635915649702383,0.0
mp-555044,Cu1Dy1S2,-1.5930872557812492,0.0
mp-554258,O2Si1,-3.2592095518749997,0.0
mp-1016825,Hf1Mg1O3,-3.0351241954999986,0.5895504404999791
mp-17063,Ba1Cu1La1Te3,-1.5177941349999997,0.0
mp-756564,Ba1Cl5Y1,-2.803705456666667,0.03578383428571742
mp-17638,Rb3Sb1Se4,-1.0324685615624993,0.0
mp-554286,La6O5S8Ti2,-2.9152350951984127,0.0005328614590526724
mp-707836,H6Ir1Na3,-0.46972669274999956,0.0
mp-776359,N1Nb2O5Y1,-2.9626375328240746,0.05965389583298691
mp-39208,Ba1Cr1La1O6Ti1,-3.2981514513333323,0.04860358975242178
mp-773145,Cr4Li2O13,-1.6983407925877205,0.013997742171054628
mp-651728,Cl14N1Sb2V1,-1.1521398504166664,0.08531031412704869
mp-505495,K1N7P4,-0.70487055078373,0.0
mp-1001023,Be1C2,0.8476712083333323,0.9668385389583332
mp-24522,Cu1H2O5S1,-1.450368848541667,0.0
mp-10401,F6Sn1Tl2,-2.4327135772222195,0.0
mp-557024,O2Si1,-3.2117630493750005,0.0
mp-3960,Ca1O4U1,-3.6962731358333323,0.0
mp-30530,Cl1O4Tl1,-0.7021187847222219,0.0
mp-754598,Hg3O6Se1,-0.8787155233177089,0.0
mp-27146,Cs2S7Sb4,-0.6599750213221157,0.0
mp-17697,F4K1Sm1,-4.007863476041666,0.0
mp-558521,B2O7Se2,-1.5692889877840912,0.0
mp-754739,Be3Ca1O4,-3.088976126875,0.06263649687500106
mp-12156,K3O14Sb5,-1.9758179910909084,0.017626307159049306
mp-648932,Nb2P1S10,-0.6693762285462478,0.0
mp-753173,Ho1I1O1,-3.1148947679166663,0.0
mp-23644,As1Cl1Hg3O4,-1.092590421944445,0.008443406324798354
mp-627119,H1O3V1,-1.9145048767500001,0.024585656416592983
mp-569349,Hg1P1Rb2Se5,-0.8577604425057872,0.0
mp-23818,Ba1H3Li1,-0.6044411415833337,0.0
mp-757945,Li1O4P1Sn1,-2.419439996904762,0.005276800415974289
mp-24391,B3H15Mg1O13,-1.7640257128515628,0.01573224730467504
mp-10234,B1F1N2Sr2,-2.0236429348611114,0.0
mp-4170,Na1O3Ta1,-3.054823912560346,0.0
mp-772782,C1Ce1K2O7P1,-2.7265485649285695,0.03902923986997683
mp-14782,Mn1Na6Te4,-1.0568234322257075,0.0
mp-1270,Dy2S3,-2.370123479875,0.0
mp-7100,F1La1O1,-4.190351092499999,0.0
mp-560553,F6Ir1,-1.5358833025000007,0.0
mp-541813,F3Mg1Rb1,-3.503474806,0.0
mp-2455,As2Os1,-0.30389278500000216,0.0
mp-557825,C1H4N2O1,-0.6603785839062501,0.0
mp-27630,Cl3Cr1,-1.4250044681249996,0.0
mp-36734,Ce1O4Th1,-4.1374605116666645,0.006929780000078267
mp-601348,H4Lu1N1O7P2,-2.328476627194445,0.0
mp-542515,Gd2O11Te4,-2.2769473899509647,0.0
mp-34260,F4Zr1,-3.8690695140000004,0.0
mp-704630,Be3Fe4O12Si3Te1,-2.3431650772463763,0.0
mp-17715,O6Sr1Ta2,-3.300834451074075,0.0
mp-569842,Ba3I2Si1,-1.2639278637500002,0.0
mp-12668,O2S1Tb2,-3.577829586125,0.0
mp-18182,Cs1Na3O4Ti1,-2.403524239268838,0.0
mp-567558,Ag1Cl2Cs1,-1.399697688749999,0.0
mp-763484,F7Fe4O1,-2.4176899488541657,0.0461661200264268
mp-41837,F5O1Rb1Ti1Zn1,-3.1917556673148146,0.0003019542115999406
mp-572741,Cs1O11P3U1,-2.910974670692733,0.0
mp-645555,K1O6U1V1,-2.991124890611112,0.0
mp-707457,B12H19K1Mg2O30,-2.1744831983750004,0.006505016987264245
mp-17490,As3Rb5Si1,-0.38883726166666654,0.0
mp-7595,F2Ge1,-2.155731935,0.0
mp-27200,B13H19,-0.06626987795454653,0.026331644627499207
mp-753891,O4Ti1Zr1,-3.5110785061111103,0.04419278458330803
mp-27622,Na2O2Pb1,-1.5834031056206896,0.0
mp-30156,Li1Mg1N1,-0.7575807236111114,0.0
mp-17875,Ca6Ga1N5,-0.9844566178125002,0.0
mp-17637,O6S1U1,-2.7331490506249985,0.0
mp-541280,Ba1Ga1La1O4,-3.1144401282142864,0.007536963309943546
mp-29606,O4Rb2Zn3,-1.6786228294444443,0.0
mp-769620,Cr1Li2O4V1,-2.4398580831250007,0.006243347557426393
mp-756424,Gd1Lu1O3,-3.9549114822499987,0.05698982437500746
mp-754326,Ag1Na1O2,-0.8261595662499985,0.0
mp-16587,Dy4O7S3Si2,-3.2655106925390633,0.013028873200315871
mp-27376,O23Rb6Si10,-2.846337254679487,0.0
mp-669445,Bi8Cu2Pb6S19,-0.6758431796964276,0.0017462936112520669
mp-625521,Br1H3O1,-1.04801332675,0.0
mp-28387,Au1Cl8P1,-0.5951163170476178,0.0
mp-5760,F1Nd1S1,-3.3545673342708326,0.0
mp-765718,Co2F3Li1O1,-2.2122707611904757,0.04921708357131698
mp-619475,F4Fe1Rb1,-2.818585530416667,0.0
mp-12441,Al2Ca1O4,-3.39332470642857,0.0006503210477052537
mp-776491,Lu2O13P4,-3.1683174047055136,0.021286134210534532
mp-770492,Cr1Li24Mn11O36,-2.1846928511422417,0.0022740515971359323
mp-744434,H3Ni1O7S1Y1,-2.0545218979807682,0.0
mp-559932,F3K1O1Te1,-2.5015185439861107,0.0
mp-573888,Ba2Cl7Sc1,-2.78661113675,0.02575778624999714
mp-15649,As2Ir1,-0.5710728491666686,0.0
mp-771976,Be2O3Rb2,-2.3470185455357147,0.0
mp-1087,S1Sr1,-2.395066039895833,0.0
mp-23801,Cl5H2Ir1K2O1,-1.5291920547499998,0.0012189828029404866
mp-676779,F7Ho2Na1,-4.025525341405173,0.15830846675001098
mp-531195,F1N1Sr2,-2.050452372239583,0.0
mp-39770,H4N1O12P3Zr2,-2.5988136269967517,0.0
mp-775284,Li2Mn3Ni1O8,-1.88484722985427,0.0
mp-4876,Sb1Se3Tl3,-0.4358570067410718,0.0
mp-30245,H4Mg3O5,-2.1589212939583327,0.014335817499986803
mp-574148,K2N12Zn1,-0.09752497927777691,0.018411456126000245
mp-7456,F2Sn1,-2.5694035925,0.0
mp-3094,Al2O4Sr1,-3.4599812634523808,0.0
mp-756175,Bi2O7Zr2,-2.7795327482954537,0.053395505454465114
mp-14395,Al1As1F1Na1O4,-2.604957051422414,0.0
mp-648992,Mo10Na6O33,-2.027443779756333,0.018350370653023425
mp-23259,Br1Li1,-1.807240133333333,0.0
mp-705530,Cl4H4N5P3,-0.7431194910156247,0.03762195879688379
mp-690537,Bi11Co2O20,-1.5313266243939387,0.06149280897727232
mp-695948,H4N1O2P1S1,-1.1784038019973542,0.0005545024459211826
mp-37310,Dy10O27Ti6,-3.6596307287209315,0.09582822732560475
mp-772740,Ba4Lu6O13,-3.6313161427173917,0.04919781338768404
mp-28548,Ge1Li8O6,-2.2032427936111114,0.0013053533333533096
mp-766317,Ba2Ca1I6,-1.9915280538888886,0.006904217777777709
mp-545404,Al2Gd2O7Sr1,-3.609614020208332,0.029442844004154978
mp-760400,Bi1Na5O5,-1.6794808751371475,0.0
mp-505562,Cr1Cu1O2,-1.7823121762499987,0.0
mp-756854,Li1Nb3O10Sr2,-3.1380332052604167,0.042358395156691486
mp-1011860,Co1Na2O7P2,-2.461048429962028,0.0
mp-770853,Co1F1Li2O4P1,-2.535484138062168,0.017307804152377315
mp-608314,Cl4Rb2Zn1,-2.0101509021428576,0.0
mp-3992,F1Pr1S1,-3.3439369089930557,0.0
mp-7404,Na3O4Sb1,-1.8779551225000004,0.0
mp-680205,I2Pb1,-0.9515978966666659,0.0
mp-676360,Na1Nd1S2,-2.028206815075431,0.0
mp-777681,F6Li3V1,-3.178253826,0.0
mp-13800,Cs2F6Na1Tl1,-2.7248719170747124,0.0
mp-554059,O6Sr2U1Zn1,-3.1971739445833336,0.05338569249976714
mp-15661,C3Sc4,-0.4846939717857138,0.0
mp-30130,Bi4I2O5,-1.5227830110227272,0.0
mp-569109,Bi1I1Mn1Se2,-0.6836798015237072,0.005982414195258201
mp-4887,Ba1Ce1N2,-1.264736711874999,0.0
mp-3917,Cd2Ge1O4,-1.5694997349999997,0.0
mp-25579,Mo3O8Y1,-2.3370143241666668,0.11060246166680503
mp-29792,Ca1Nb2O4,-2.8545370871428566,0.0
mp-558536,Au1Cd1Rb1S2,-0.8976194417500001,0.012811719999993088
mp-567713,I7Nb3Te1,-0.7589199181818199,0.0
mp-765511,F1Li6O5V1,-2.4332591477884615,0.07193904000004554
mp-556801,B6Na3O13P1,-2.7747085979016743,0.0
mp-6353,C1N6Si4Y2,-1.4433530048076937,0.0
mp-561384,F4Zr1,-4.029287139750001,0.0
mp-3822,C1O3Sr1,-2.6968440774999998,0.0
mp-560067,Ag1Br1Hg1S1,-0.5696097049479167,0.0
mp-22993,Ag1Cl1O4,-0.013201399583333995,0.0
mp-644203,Ca1Cs1H3,-0.4970716470000028,0.012200193749999677
mp-5327,Na4O5U1,-2.5840083419999984,0.0
mp-6607,Ca5O12S1Si2,-3.2309249910312507,0.004183413125134905
mp-5634,F1Nd1O1,-4.118928871666665,0.0
mp-2175,F1Tl1,-1.9309455779166664,0.0
mp-558143,Cl3N1Pr4S3,-2.409778856306818,0.0
mp-562854,Bi1Cs1Nb2O7,-2.6719267862891845,0.0
mp-559790,Cl7K2Nb3O5,-2.4450444221764704,0.0
mp-759307,Nb2O7Ti1,-3.170404370458335,0.0318379103750285
mp-765750,Cr2Fe3Li5O10,-2.0890093350833325,0.03545738675014505
mp-581194,B5Cs1O8,-2.6065157311607154,0.0
mp-770967,Li2Mn1O7P2,-2.662167909073618,0.0
mp-568392,Ag10Br3Te4,-0.25709617147059055,0.0
mp-7087,O2Si1,-3.026610956666667,0.0
mp-686057,Li1Nb1O3,-2.8860819179166652,0.0
mp-762633,Li1Mn2Ni1O6,-1.6900812921695405,0.06327574656250654
mp-18138,K2Se4W1,-0.975480801964285,0.0
mp-567710,K1Pr3Te8,-1.344887793645834,0.0
mp-28046,Al1I9P2,-0.615785900357143,0.0
mp-17897,O7P2Rb1Y1,-3.130817901298701,0.0
mp-19163,O4Sr1W1,-2.7470644594444438,0.0
mp-774712,Cu1Li1S1,-0.8138636402083333,0.00457404319444817
mp-17827,Ag1Nd3Se7Si1,-1.6116304979644098,0.0
mp-14883,Ba4S10Zr3,-2.108678038308824,0.014616277647083861
mp-774567,Er2O5Ti1,-3.9013712343229177,0.0
mp-30120,Bi1K3O4,-1.6546902467499995,0.0
mp-31269,Na2O7S2,-1.7775315391477269,0.0
mp-23147,Al3Br1Na4O12Si3,-3.067879095487257,0.0
mp-24705,B5Ca1Cl1H2O10Sr1,-2.7775999156666673,0.010408792765019114
mp-18510,O4Si1Sr2,-3.3041712257142857,0.0
mp-5955,F6Na1Sb1,-2.8670641714439657,0.0
mp-15059,F7Gd1Sn1,-3.5402292122222225,0.0
mp-7644,As1Lu1O4,-2.8591812199999995,0.0
mp-18816,Fe2O4Si1,-2.263441667857142,0.0
mp-770739,Fe1Li1O4Ti1,-2.5920639848809515,0.017849116531698832
mp-5547,B2Mg2O5,-2.8721819311111116,0.0
mp-721314,H2Na1O4S1,-1.7232777458970903,0.03298612722847705
mp-697592,Be1H3O5P1,-2.126896179339286,0.03442112533332207
mp-31001,K1O5Sb3,-1.8421701501944452,0.0
mp-4190,Ca1O3Sn1,-2.5009387329999995,0.0
mp-16861,As3Ge1Na5,-0.5268169800000003,0.0
mp-19105,Mo1N1Na3O3,-1.6186370732381468,0.017094343342477725
mp-757850,K4O5Sb2,-1.8619566500681826,0.0
mp-769630,F8Li2Mn3,-2.9375650354199836,0.021743724615368238
mp-568847,Ge1K4Se4,-1.2228135736249994,0.0
mp-623854,Na1Nb3O8,-2.961096510962643,0.017605288437397466
mp-643043,H1O1Rb1,-1.5061023204166666,0.0
mp-21960,Fe2K9Se7,-1.0636863793559028,0.0
mp-555867,Ba1Bi2Nb2O9,-2.653801390625001,0.004869828751592158
mp-558279,O7Te3Tl2,-1.0844706816666658,0.001346641145834641
mp-754272,Ba2Cs2O3,-2.09907388601601,0.02456908285709401
mp-643364,Cl1H1O1Pb1,-1.2604134540624976,0.0
mp-18126,Cu1Se7Sn1Tb3,-1.5447227813671869,0.018580785963104567
mp-680482,Ag1Br13Mo6,-0.8386317612499994,0.008184206750009615
mp-1019586,Al2Ca1O6Si1,-3.42898524625,0.01644746545951037
mp-5448,O7Pr3Sb1,-3.262951077045456,0.0
mp-23488,I1Se2Tl5,-0.5504400103906306,0.0
mp-556717,Ga9O2S13Tl3,-1.103762020578704,0.0
mp-570900,K4Sn9,-0.22285317823076958,0.005267759692306511
mp-772783,Li2Mg3O16Ti6,-3.29603783802469,0.01456890712965941
mp-774721,La3Li5Nb2O12,-3.093642029507576,0.053645938977275875
mp-685992,Cl4Cr1Li2,-1.7606000713095236,0.037616759920634735
mp-752636,Li1O3Sb1,-2.030146985916667,0.0
mp-754196,Ba2I6Sr1,-2.01536817,0.013791629444444453
mp-6486,B1O5P1Sr1,-3.1227199657812506,0.0
mp-556231,Bi1Ga1In2S6,-0.8348497901250006,0.00268340039583439
mp-13815,Er1F6Na1Rb2,-3.605909790655172,0.0
mp-761019,Hf2N2O1,-2.4384078922500008,0.0
mp-571453,Cl6K2Sn1,-1.6372513802777777,0.0
mp-28842,H9P1Si3,-0.13538605275641002,0.0057013042307692
mp-769616,C1Cr1Na2O7P1,-2.391507667075121,0.0
mp-28990,Bi2O11Te4,-1.583496527671569,0.0
mp-773576,Fe9Li1O16Zn2,-1.6804867272619037,0.05701778557257115
mp-11124,Cs1Hg1La1Se3,-1.511138162447916,0.0
mp-6613,Ba2O6Ta1Y1,-3.5717870329166663,0.0
mp-554463,Lu1Na3O7Si2,-3.075711059428603,0.00035641647412905267
mp-18183,F7Sn1Y1,-3.5556739585185184,0.0
mp-29803,H1Si1,0.036175890624999596,0.029989371250000132
mp-17743,O7Sn2Sr3,-2.5829893283333334,0.0027711149999187037
mp-736,Li3P1,-0.8093607869940476,0.0
mp-775783,Hf2N2O1,-2.528354801750001,0.0
mp-13978,F6Rb2Th1,-3.882363957777776,0.0
mp-772552,Cr1Li6O4,-1.9860297463636363,0.09322880151515278
mp-721650,Ca1H14I10O7,-0.9982282978124997,0.011667329296920714
mp-770727,Al2Fe1Li3O6,-2.6805286277083336,0.020300400833151617
mp-17196,As2O7Ti1,-1.8981000101666665,0.0
mp-17546,Cs2O4Ru1,-1.5146251928571448,0.0
mp-772671,Cr1Li5O4,-2.0988657977916665,0.09880870437499993
mp-567428,Cu1Ge1Se7Tb3,-1.5467452447005208,0.0
mp-756494,C1Ge1Na3O7P1,-2.215750732826038,0.05479195595443706
mp-561290,Bi1F5K2,-2.8480110012500006,0.0
mp-14234,B4Mg1O7,-2.7133715476041664,0.0
mp-19369,Cr1O5Ti2,-3.092653554114583,0.022678848125151863
mp-4344,Ho1O4Ta1,-3.591706552888889,0.0
mp-1019610,Cs2Mg1O12Si5,-3.1410359967306034,0.0
mp-562441,Al1Cs3O3,-2.1086811160714274,0.0
mp-770795,B1Cu1Na3O7S1,-2.0433424610234305,0.09128631115689355
mp-696805,H2S1,-0.1704340646875,0.0
mp-1009083,Mg1P2Sn1,-0.3010474385714277,0.010045120250135708
mp-756853,B1Li1O3Sb1,-2.2174063749999995,0.08645734964563297
mp-626554,H9Na1O5,-1.3190745073534487,0.0
mp-12626,Be2F8K2Sr1,-3.5978765478974357,0.0025242653123456193
mp-698687,H16K4Mn2O23S4,-1.6539721439104496,0.07812262546843406
mp-561234,Ba1F11Na1Zr2,-3.9639087664252872,0.0003932669924698947
mp-570021,Ag1Se27Ti6Tl5,-0.9567222478619124,0.0
mp-559378,Ba5Cl2O9Ta2,-3.308416238175926,0.0
mp-568987,Be1H4Na2,-0.3265809175862075,0.0
mp-4988,As1S2Tl1,-0.32038907828124863,0.0
mp-36733,Cd1La2Se4,-1.8011981263392853,0.09229341844606687
mp-1019562,Ca2O4Si1,-3.3372661549999996,0.0
mp-5616,O7P2Sr2,-3.048063162813852,0.0
mp-568536,Ba1I2,-2.0787632555555557,0.0
mp-6604,Al1F6Li1Na2,-3.4318637539999997,0.004643215333306472
mp-756166,Ho1La1O3,-3.8166913666249997,0.03344634425000663
mp-20805,F4Pb1Pd1,-1.9787123358333336,0.0
mp-754409,B1Ho1O3,-3.5343690950833335,0.0
mp-20078,O3Pb2,-1.1145393354999953,0.009844174999998146
mp-2980,O11Pr2Te4,-2.2621937119117517,0.0
mp-721582,H2S1,-0.15691178093749988,0.0
mp-775757,Hf1O2,-3.9050327779166687,0.0
mp-601861,In1Rb1S2,-1.1956379390624994,0.0
mp-776970,Li5S4Sb1,-1.1850809551666663,0.051351565499990134
mp-770413,Ho1La1O3,-3.7700216236250013,0.03344634425000663
mp-772968,H1Li1O3P1Tl1,-1.9821521135799334,0.0067753520339383245
mp-22874,Br5P1,-0.8516818813888888,0.0
mp-555844,Cl1Mn1S2Sb1,-0.8924716758362067,0.002705646012834073
mp-699248,B5H2O11Sr2,-2.7012364945416665,0.04754778783835754
mp-31077,I6Te1Tl2,-0.6773403320370366,0.0
mp-756435,Nb4O13Sr3,-3.170769990375001,0.09807886268735047
mp-7437,K1P1Zn1,-0.5765177672420639,0.0
mp-705713,Bi14O24W1,-1.4635093811538418,0.008355284487191302
mp-767720,Li2O13Si4V4,-2.76436517039855,0.015171548479346991
mp-10340,Ge1Na2O6Te1,-1.9511787672270118,0.0
mp-484,As2Te3,-0.0015087340000007998,0.0
mp-760979,Na2O5Ti2,-3.0068570828911243,0.014798241059276605
mp-23969,H2O5Se1Zn1,-1.3479139758159728,0.0
mp-557414,Ba1N8O1Si6,-1.5559502160937493,0.0
mp-770771,O4Sc2Sr1,-3.6521567817857132,0.0
mp-25908,O3P1Sn1,-2.482638535504201,0.3098804222143009
mp-770956,Li2Mn2O5Ti1,-2.525634619961207,0.05597970549846849
mp-644245,H3Na2O5P1,-2.0535215007864966,0.008319982500694323