Material ID,Compound,Energy,Hull Distance
mp-755287,Ca3Cd1O4,-2.7474974537500003,0.0
mp-13313,Sc1Se2Tl1,-1.4527441607812506,0.0
mp-697767,Li1Mo1O7P2,-2.544692140465367,0.0
mp-768160,Bi1C1Li2O7P1,-2.277483186145832,0.04796821083359504
mp-23940,H1Na1O1,-1.4479366312500002,0.0
mp-756290,Ga1O3Tb1,-3.1269886872499995,0.04679316889630414
mp-765742,Na3O10V5,-2.4044102203975086,0.03181025347223473
mp-615993,O2Si1,-3.0283339883333333,0.0
mp-556236,C4Ce2F1Na3O12,-2.5356926635070525,0.0077867011975123876
mp-557118,O2Si1,-3.24798157,0.0
mp-767401,As1Gd2O5,-3.10424272203125,0.044318079374973784
mp-614013,Cs1I3Sn1,-1.2137737689310348,0.0
mp-28094,Cl7Dy2Rb1,-2.684604179583341,0.0
mp-555863,F12P4Pt1,-2.6146572825490195,0.0
mp-20845,Dy2O7Sn2,-3.0302043219318175,0.0
mp-561525,B2Ga2K2O7,-2.5297144185064107,0.0
mp-7483,F3Hg1K1,-2.2053720671,0.0
mp-7640,O7Sc2Si2,-3.3724998677272735,0.0
mp-24399,H10Mg1O9S1,-1.5822547986607147,0.017924005950508866
mp-754401,Al2O3,-3.3288455205,0.0
mp-680048,Br7Rb1W3,-1.1246628061363637,0.0
mp-754825,Na1O2Tm1,-3.2172208876795967,0.0
mp-1020031,Al1Ca1Li1N2,-1.182386427166667,0.0
mp-690539,Cr1F6Ni1,-2.520721434375,0.0
mp-764746,Li5O12V7,-2.3797347350694458,0.03554090184029235
mp-759607,Li1O24P7Sb4,-2.3715151304398145,0.06227538833331102
mp-1019894,B10La4O21,-3.230189277154763,0.012600872099999704
mp-18253,Ga4O7Sr1,-2.3029287962500007,0.0
mp-559711,Na2O4Rb2Si1,-2.3347803684003825,0.0
mp-554034,K1La2Nb1O6,-3.4277898340500004,0.0
mp-777887,F5Li3V1,-3.0110260421296293,0.05286765805556036
mp-554107,Ge2K2Na4O7,-2.055599416397126,0.0005226901112898475
mp-22791,In1Te2Tl1,-0.574680369166666,0.0
mp-23711,H2Mg1,-0.29373979833333347,0.0
mp-15415,As2Ga1K2,-0.47799325940000087,0.0
mp-23431,Cs1Cu2I3,-0.8350914291091959,0.004275199861110283
mp-19886,Pt1Sn1Th1,-1.1920333300000057,0.0
mp-774302,Mn3O8Ti1,-2.137018637052203,0.04218236875013215
mp-558046,F3K1Mn1,-3.017154201036206,0.0
mp-561377,F12K4Mn3,-3.0179136654446457,0.0
mp-34081,F4Na1Y1,-3.9685895897030647,0.0
mp-553342,B1Be2Cs1F2O3,-3.1681426342608554,0.0
mp-568036,Ga1La2N3,-1.2342443129166665,0.0
mp-25885,Cu1Li1O4P1,-2.1792632911394554,0.042708045358219086
mp-541722,Ba2Br5Cs1,-2.465623432187499,0.0
mp-3384,Al5Er3O12,-3.649202713874999,0.0
mp-550759,Cl1O4Rb1,-1.066311349583333,0.0
mp-600041,O2Si1,-3.0247235002083337,0.0
mp-769809,Gd3O7Ta1,-3.656413121575758,0.0
mp-556896,Ag1Au1Ba4O6,-2.1946101680555548,0.0
mp-16705,O3Pr2,-3.735860027000001,0.0
mp-561664,F4Te1,-2.2182349330000006,0.0
mp-756066,Ho2O7Zr2,-3.8643283942045454,0.09738017698866162
mp-23957,H2I2O7Sr1,-1.4700966344097217,0.014897533333352087
mp-553082,Bi2Cl1O4Pr1,-2.40382905625,0.0
mp-703470,As1H6N1O4,-1.1573705733333324,0.03582640747594956
mp-19011,Ba2Ni1O6Te1,-2.277948051916666,0.0
mp-643710,B12Cs3H12I1,-0.48188840513546743,0.004668939642857227
mp-12027,Se3Ta1Tl1,-0.7410641909041373,0.021242461500003796
mp-757207,H5O13S3Y1,-1.9255510836931817,0.011468297717324626
mp-662535,O5Pb1Se2,-1.002270465390625,0.0
mp-24411,Al1H6K2Li1,-0.36734691893333393,0.0
mp-771058,Co1Cr3Li4O8,-2.227994026458333,0.00885387406247462
mp-675993,N2O1Zr2,-2.4503816594999988,0.0
mp-29432,Cl4Na1Sc1,-2.2449279591666667,0.0
mp-5884,O4P1Tm1,-3.517082394107144,0.0
mp-772638,Ho2O6W1,-3.2990955497222196,0.0
mp-562442,Cs2O4Se1,-1.8084615147436875,0.0
mp-7461,Hg2O4S1,-1.3478981883035708,0.0
mp-17059,K3Nb3O13Si2,-2.9781685563928577,0.00035836833160137377
mp-21801,O3Pb1Rb4,-1.4075518689062498,0.0
mp-761817,Li1Nb1O4V1,-2.6685053279761908,0.03708239193140577
mp-754468,Cu1Na1O2,-1.163549309375,0.0
mp-530262,Cr2Li15N9,-0.766586044038462,0.0
mp-31119,O3Sc1Tb1,-3.958515287249999,0.018455743374955348
mp-667320,Cl4Se1,-0.8209088828437501,0.0
mp-766387,Al11O17Rb1,-3.29858354538793,0.0
mp-570268,I1Mn1Sb1Se2,-0.6235403825237071,0.003457823000000193
mp-772554,Li4Nb3O16V5,-2.631069354404762,0.04964699194207307
mp-753785,F3Nb1O1,-3.260800911249999,0.0
mp-769138,Dy2O7Sb2,-2.8251537793560604,0.08240337048474444
mp-755558,Ba1La2O4,-3.579900332857144,0.0
mp-643801,H6K2O6Pb1,-1.454800867233334,0.0
mp-768582,B1Bi1Na3O7P1,-2.4221746052619357,0.020870081986167303
mp-568614,Cl9Cs3W2,-1.6933690342118228,0.056074832500002766
mp-555118,Na1O3P1,-2.634127569204435,0.0
mp-754359,O12Te1Y6,-3.545973892192982,0.0
mp-28351,Dy2Ge1O5,-3.365462912916671,0.0
mp-28329,I3Tl1,-0.5056128037499974,0.0
mp-546973,O3Sn1Sr1,-2.5909741675833344,0.0
mp-13061,O3Y2,-3.8528517689999986,0.0
mp-29022,Ge1K2Se4,-0.8886247355357142,0.0
mp-13032,Mg1S1,-1.6271592137499993,0.0
mp-18040,F4K1Pr1,-3.9756636188333334,0.0
mp-752826,Al2O3,-3.2631856614,0.0
mp-643712,H5Mg1Rb3,-0.28363703708333315,0.007775734907407313
mp-755198,Cs3La1O3,-2.140284976434729,0.02408827749996207
mp-680472,Br13Mo6Na1,-0.9776907307500039,0.01122274249999844
mp-756468,Ca1O4Y2,-3.705266455476191,0.03968531142859482
mp-771831,Cl7La1Sr2,-2.6607031765000047,0.030033165000000396
mp-755651,Cs1Gd1O2,-2.831762086250002,0.0
mp-759707,F2O5Sb4,-1.9520867870454537,0.02467915215912568
mp-16160,Au2O9Sm4,-2.8010598079999967,0.0
mp-755568,Bi1Ga1O3,-1.9250623307499999,0.0023703998749951436
mp-740710,H8Li1Na2O13P3,-2.028938761019279,0.033940865463417284
mp-561051,Rb2S7Sb4,-0.8219474278846147,0.0
mp-542078,K2La1P2Se7,-1.1742203631409964,0.0
mp-600003,O2Si1,-3.028708832916667,0.0
mp-752460,Ag1F4Li1,-1.8654156252777778,0.0
mp-714883,Mo1O2,-1.808739111666667,0.0
mp-644879,Mg1O3Si1,-3.1776291399999996,0.005957224250073523
mp-644852,Ba1C1Ca1O3,-2.67282083125,0.587393342604073
mp-2173,O5P2,-2.434560996845238,0.0
mp-3180,O9Ta2Te2,-2.4940901092692296,0.0
mp-672372,K2S5,-0.8845541716607143,0.0
mp-28419,K2Se3Te1,-0.9494585986996528,0.0
mp-28969,Cl3N1Pr2,-2.3641610849305557,0.0
mp-762023,Li1Ni1O4P1,-2.295139693452381,0.0
mp-676572,F15Nd1Pb6,-2.967752372045455,0.0300590121213127
mp-16118,Cu1Dy2Rb1Se4,-1.7264703306510398,0.0
mp-554625,Cl8N1S2Sb1,-0.8053031939583336,0.012704048093662953
mp-754217,I1O1Sm1,-3.0763509662499993,0.0
mp-26299,Li1O4P1Sn1,-2.4550553545238096,0.005276800415974289
mp-40373,F15Ga3In14O8Pt2,-2.156948683095238,0.0
mp-36028,Co2O4Sn1,-1.6355294757142869,0.0
mp-15785,Dy1K1S2,-2.1322807323125,0.0
mp-626566,H2O7Ti3,-2.874724370104166,0.03647492083332556
mp-531297,Ga4Ge1S4,-0.7815687513888889,0.018977329583333733
mp-11869,Hf1Pd1Sn1,-0.7820013700000032,0.0
mp-770415,Er1Ho1O3,-3.953200423916667,0.09320103329166471
mp-18951,Fe1Li1O4P1,-2.4615587597108837,0.0
mp-555434,As2O5,-1.228040303571429,0.0
mp-555836,Cl1O4P1Sn2,-1.849733129434524,0.0
mp-15558,F6Ga1Li3,-3.0958282099999996,0.0
mp-16590,O7S3Si2Tb4,-3.1771378372200534,0.00538544132563068
mp-24799,B12Cl1Cs3H12,-0.5202592451354684,0.0015994046428576983
mp-773900,Ba1Ca2I6,-1.9078762016666668,0.029028926944444047
mp-763184,Co1Cr3Li3O8,-2.0797035513333335,0.019529851166313488
mp-530738,Cl24Li10Mg7,-2.1885859875203253,0.00844058365852826
mp-27971,Ac1Cl3,-2.940648830625,0.0
mp-29212,I6Pb1Tl4,-0.8952989675757579,0.016077552500000456
mp-568916,Cl1In1K6Te4,-1.3061701470555551,0.0
mp-754496,Li5S1Sb1,-0.9772913874702382,0.05033987999999961
mp-24150,H1Li1Nd2O3,-2.819927338869048,0.02263943178571434
mp-17228,K2Ni3S4,-0.9442484082777756,0.0
mp-764842,F3Li1O1V1,-2.9523114007638895,0.006431431706131363
mp-776952,Na2O1,-1.3150896138888892,0.0
mp-5858,Cd1F6Pt1,-2.0048701343749995,0.0
mp-705801,Mo1O7Sm3,-3.3371913677272715,0.0
mp-735578,As1H3Mo1O8Sr1,-1.8987184095535719,0.07435027656287423
mp-6146,Li1Nb1O4Zn1,-2.577272453690475,0.003240050357141858
mp-768235,B2O5Te1,-2.244724370937499,0.06201275473959589
mp-722834,H2Na6O9P2,-2.3169860977663994,0.003917739868447556
mp-774797,Li2O8Ti3Zn1,-3.0563909388690473,0.0
mp-760795,Al10O16Zn1,-3.2979553781481474,0.021152826851853226
mp-759493,Li1O7P2Sb1,-2.417456186147185,0.016046324166819916
mp-28382,K4O3Zn1,-1.49838220134375,0.0
mp-20194,Ce1O2,-3.760158946666666,0.0
mp-12829,Ca1F6Ga1Li1,-3.463849241759259,0.0
mp-616544,Cr3Rb1S5,-1.1105657864583331,0.0
mp-35269,Ca4S1Sb2,-1.395764588303571,0.06906908147957733
mp-686614,Al3O48Ta1Ti9Zn23,-2.5080794746428565,0.053004031994082504
mp-570136,Cu1I1,-0.36839619249999994,0.0
mp-14289,Ba3P4,-0.9497315661904763,0.0
mp-1019781,K2Na3O10P3,-2.6455402951752873,0.0
mp-15318,F6Ho1Na1Rb2,-3.5995992986551726,0.0
mp-15833,N12P6S1Zn4,-0.735057612744566,0.0
mp-557224,Hg1O3Se1,-0.6925739528125007,0.0
mp-637213,Ge1I2La2,-1.5715270079999981,0.0
mp-770949,C1Li2O7P1V1,-2.471620551775793,0.014613173333355434
mp-562263,Cs2O2Pb1,-1.4833691448620665,0.0
mp-777899,F3Fe1Li1,-2.7545024771666666,0.01993637349570001
mp-753879,O1Pr2S2,-2.8742331611666656,0.007088419500001919
mp-720853,H5Na2O6P1,-1.8899305973143907,0.004130952321402402
mp-555808,B3H3O14Zn8,-1.9837954977232133,0.019966011383924304
mp-568052,Ga3K2,-0.14637835369999977,0.0
mp-753864,Li2Nb4O13Sr2,-3.0863617059126986,0.02667855613051239
mp-771026,B1Na2O7S1Sb1,-2.1589047788870928,0.08765734475944775
mp-14069,Al1Cs1O2,-2.8468154636637935,0.0
mp-16280,Ca2O7Sb2,-2.404794152272726,0.0
mp-20458,F6Pb1Pt1,-1.9438039506249964,0.0
mp-33975,As1Cu1Se2,-0.037349940156254036,0.10869522843806909
mp-753371,Cu1Li1S1,-0.860484972152778,0.00457404319444817
mp-14951,Al1O3Rb3,-2.191114209999998,0.0
mp-568666,Au1I3Rb1,-0.9404383365000001,0.0
mp-17167,Be3Cd4O12Si3Te1,-2.411658461630435,0.0
mp-558155,F4Fe1K1,-2.836749067666668,0.0
mp-13563,O14P5Y1,-2.5718513639940452,0.0
mp-571132,Al1H24Li1Mg10,-0.2718658795370372,0.011943091898142664
mp-3444,Er1O4Ta1,-3.601098948444445,0.0
mp-775001,Fe1O8V3,-2.2001704416666663,0.039809583333336875
mp-705154,Cr4Li1O24P7,-2.587349654768518,0.03453885131944487
mp-775910,O2Zr1,-3.740066983666668,0.0
mp-3236,O2Pr2S1,-3.421677770125001,0.0
mp-557809,Cl9S1Sb1,-0.5313626136647737,0.0
mp-30051,C1Cl7Si3,-1.3589475990909095,0.06363545361742741
mp-777978,Ba1F5Y1,-4.24621375577381,0.0001742715711700831
mp-540771,Ba1S3Zr1,-2.1071206025000064,0.0
mp-3107,Ga3O7P1,-2.430091085189394,0.016344412727273102
mp-18993,Lu1O4V1,-3.2086111377777775,0.0
mp-770629,Al1Fe1Li2O4,-2.487814888958332,0.016841030938335333
mp-677191,Ba1La1O6Ru1Zn1,-2.4690694317500004,0.042417995333522994
mp-18343,Ba1Mg1O7P2,-3.116917432537878,0.0
mp-557540,Ag1Rb2S4Sb1,-0.8897157133333335,0.0
mp-756580,Lu2O4Sr1,-3.8039386052380952,0.0
mp-560835,O1Pr10Se14,-2.2774861383791656,0.006509619550116668
mp-31451,Bi1Co1Zr1,-0.4462970191666642,0.0
mp-775328,Li2Ni3O8Ti1,-1.763398671607142,0.03733734002593866
mp-649595,Ca1Mg1O4Si1,-3.308152507142857,0.0
mp-6342,Ca3Li1O6Ru1,-2.6322655214393933,0.0
mp-557713,Ba2La1O6Ta1,-3.504075443233333,0.0
mp-769646,Co2Li2O5Ti1,-2.2199447968749992,0.04629312749939274
mp-20351,In1P1,-0.2057973716666659,0.0
mp-767960,C1Fe1Na2O7P1,-2.2347224179084564,0.0
mp-561622,Ag1As1Cs2S4,-0.8859016437535914,0.0
mp-555556,O2Si1,-3.029908188541667,0.0
mp-771707,B1Li2O7P1Sn1,-2.505843470248015,0.09823624428290738
mp-770348,C1Li2O7Si1V1,-2.498919407118055,0.06640365083121462
mp-17283,K3Nb1Se4,-1.324651561562499,0.0
mp-556375,Ba2La1O6Sb1,-3.025609856250001,0.0
mp-766358,Bi5F1O7,-1.7088709849038461,0.052580847692333066
mp-570130,Al1H3,-0.05904793739583288,0.0
mp-555199,As1Hg1S3Tl1,-0.4650511242013895,0.004853958541666259
mp-619034,O3Si1Zn1,-2.6402750731249993,0.036668962708341725
mp-1105,Ba1O2,-2.0400172349999983,0.0
mp-31030,F7Ho2K1,-4.2220415918,0.0
mp-559309,Cl4K3N1O3Zn1,-1.7660895308541662,0.0
mp-558159,Ba1O5Ti2,-3.3686699566666682,0.0
mp-706303,Ca2H9K1O17P4,-2.2861199765934335,0.012383883560119532
mp-31121,Ho1O3Sc1,-3.879838454999998,0.03672155733335245
mp-1018651,Ba2H3I1,-1.0223974139583334,0.0
mp-34326,Br3Li6N1,-1.2772635353750004,0.009862210124999039
mp-761140,Na4O16Ti7,-3.1128633125755636,0.057358055925641235
mp-768388,Ge1Lu2O5,-3.2695777447916647,0.010703635429867298
mp-542219,F6Li2Zr1,-3.695181704259259,0.0
mp-31604,Co1Li2O7P2,-2.4896335888293653,0.013520971428562826
mp-775484,Ba6Li2O39Ti16,-3.4629408906746035,0.01553294507873723
mp-632694,Mo3O8Sc1,-2.2653823895833347,0.14571461687465734
mp-16591,O7S3Si2Tm4,-3.2514395709375012,0.04124699107573093
mp-557456,Al3Ge3I1Li4O12,-2.6183043866666655,0.0
mp-733610,C3H7N3O5,-1.024778119097222,0.02538235516208746
mp-6972,Cu1O2Y1,-2.6216180925000003,0.00030972062509482257
mp-505607,Ag2Ge1In2Se6,-0.618151405217803,0.017839440454545462
mp-23268,I1Na1,-1.5548573049999987,0.0
mp-697339,C1H4Ho2O7,-2.438775374553571,0.0
mp-685945,Er14O41Ti10,-3.6734502755705134,0.1728560803843891
mp-769252,O8Sr3Ta2,-3.396618136897435,0.0581667569230985
mp-755588,Ho2O6Te1,-2.964662569629628,0.0
mp-17577,Ca6Mn1N5,-1.000856399410921,0.0
mp-550751,Ba1Be1O4Si1,-3.3221563192857126,0.0
mp-756182,H1O1Rb1,-1.460302902083333,0.0
mp-772176,Li3Nb7O19,-2.878143126465517,0.1030536828448266
mp-556135,Gd1I1S1,-2.1321599191666656,0.0
mp-707333,H3Na3O5Si1,-2.067667360700431,0.0032688398955853515
mp-770419,O16Sr2Zr7,-3.7252141633999987,0.0
mp-14511,Al1Ge1Na1O4,-2.6373897829351387,0.0
mp-27431,B1F9Sn3,-2.7886301874358983,0.0
mp-14935,O9P3Rh1,-2.276329623571428,0.0
mp-560441,Ba1O7Si2Zn2,-2.8535252622916656,0.0
mp-542237,H1O12P4Sm1,-2.53290129698082,0.0
mp-28070,I6Rb2Te1,-0.9858176430555545,0.0
mp-559203,Cd1O3Se1,-1.41714266896875,0.0
mp-673134,Li1O10P3Sn2,-2.412210835766369,0.04674529239519831
mp-28543,Cs4O4Zr1,-2.2793345371360143,0.0
mp-30313,O7Se2Tb2,-2.5951337419034077,0.0
mp-1541,Be1Se1,-0.9444543557812501,0.0
mp-560037,Bi1F6Na1Rb2,-2.923583635137931,0.0
mp-642320,Bi32O76P10Pb3,-2.0346091650944507,0.01304906775493793
mp-19278,Ba1Co1O7P2,-2.7506718474350653,0.0
mp-761669,Co1Li2O8Ti3,-2.949770283869047,0.0
mp-18705,O6Rh1Sr3Tb1,-2.9212462138636366,0.0
mp-770536,F5H2Li2O1V1,-2.629200155606061,0.060609305806954825
mp-3919,B1K1O2,-2.641930080354166,0.0
mp-28914,Br3Cd4P2,-0.6619389749669311,0.0
mp-769603,F3Li1O4S1V1,-2.4383365620833324,0.04749910188331512
mp-1249,F2Mg1,-3.829413601666667,0.0
mp-28634,F16I3K1,-2.1109669098625,0.0
mp-643706,Cs3H5Mn1,-0.26564879313697215,0.0
mp-29074,As2F12Te7,-1.7357593771031747,0.0898574372618866
mp-20191,Ru2Si3,-0.5921587510000024,0.0
mp-562542,Cs4F19H2Hf3Na1,-3.534077032068965,0.0
mp-23411,Br6K2Te1,-1.441074848074074,0.0
mp-23290,Cl2Pt1,-0.47506400999999854,0.0
mp-7622,K1O4S1,-1.7883776299583332,0.07554274979173788
mp-33997,F1O2Ta1,-3.3329015812500007,0.06960593499953616
mp-23413,Bi1Nb1O4,-2.5223136745833337,0.0
mp-4274,O4Sr1Te1,-2.0045900233333334,0.0
mp-624200,Br1Re3Se4,-0.769199017421875,0.0
mp-558954,Al2F9Na2O4P1Sr2,-3.6075339699885056,0.0
mp-752827,Ba2In2O5,-2.3840617748611117,0.0
mp-773432,C1K1Mn1O7P1,-2.2031339984558516,0.0
mp-23315,I1O3,-0.6229571196875003,0.0492381376562494
mp-555664,S1Zn1,-0.9621872907812493,0.0
mp-763215,F5Ni3O1,-1.9971053233333333,0.06641699495370229
mp-775393,Cr3Li2O8Sb1,-2.3267953979761904,0.0
mp-24517,Ca1H4Rb2,-0.41515631500000033,0.008987217500000153
mp-555191,Cl3La3O7Si2,-3.313135237388879,0.006307563673530107
mp-571079,Cl1Tl1,-1.3258213141666677,0.0
mp-560146,Ba17O57Pt4Y16Zn8,-2.9601846203676465,0.0
mp-772048,B1Bi1Na2O7S1,-2.159524353470426,0.08961062499850432
mp-703444,B5H12N1O12,-1.845760580527778,0.0
mp-6644,La2Li1O6Ru1,-2.8597546143333332,0.0
mp-559256,Cl3La4N1S3,-2.5596412947727276,0.0
mp-756180,Ba2Hf7O16,-3.8791330743999994,0.04458349290002104
mp-703295,H2I2O1Sr1,-1.6386816300694445,0.0007942937499946604
mp-23587,Cl1Ho1O3Se1,-2.48771982705729,0.0
mp-29330,F7H5K2,-2.2417691254107135,0.0
mp-36329,O4Sr1U1,-3.687772768749999,0.0
mp-684652,Be1F2,-3.3296524833333336,0.0
mp-33882,Ag1Er1Se2,-1.3927107053385406,0.0
mp-560316,Hg3O6S1,-1.1893994277291668,0.0
mp-662523,O3Sr1Te1,-2.3468863018333335,0.0
mp-763832,C1Li3Mn1O7P1,-2.4207439469241816,0.051011497308665485
mp-768154,C1Mg1Na3O7P1,-2.535424301672192,0.0
mp-767588,F5Li1Mn1,-2.678692437680625,0.015138145505959853
mp-30018,I4Rb2Zn1,-1.3923751507142843,0.0
mp-30309,Au5F21Y2,-2.0822925638392866,0.0
mp-554793,C4H7O11Y1,-1.7131321636050714,0.03809738740489281
mp-556774,Cl3K2N3O5Os1,-1.2376335039107147,0.011121148923532585
mp-776727,F8Fe3Li2,-2.709129062628205,0.023509696923007084
mp-27876,B2H3,-0.05688339635227422,0.034645377973037614
mp-767776,O12P4W1,-2.1769876889355744,0.009818386029402274
mp-760580,Ag1F3Li2,-2.424719040972221,0.019543975555609272
mp-31373,H18O12S1,-1.3545209360685482,0.0
mp-27834,Cl6Pt1Tl2,-1.1868572385185203,0.0
mp-662553,B2Pb2S5,-0.7680191721064813,0.0
mp-29709,Hg3O4P1,-1.5058035729166663,0.0
mp-772980,Li6O9Te2,-1.9472598004166675,0.09492821632353016
mp-1403,S3Sm2,-2.3784947576874997,0.0
mp-555217,Dy3F1O12Se4,-2.2386373066874996,0.0
mp-5808,Nd1Rb1Te2,-1.6153193845833327,0.0
mp-31416,Ho3O7Ta1,-3.87674236875,0.0
mp-776575,Ba1O4Tm2,-3.7365342316666657,0.0
mp-768670,C1K3Mg1O7P1,-2.5443505943141016,0.003975313940082095
mp-2630,C2Sr1,-0.12219629166666597,0.05431544111110951
mp-28588,Be1Na2O2,-2.179389587870689,0.0
mp-707767,H4Na2O5Sn2,-1.5235686319694959,0.023891485096263283
mp-12485,Na1S7Si1Sm3,-1.8985415965732753,0.025578846960825057
mp-743600,Fe1O12P3Pb1Zr1,-2.726693901607141,0.0
mp-1016821,Ba1O3Si1,-2.8401633104999986,0.0
mp-28318,Hg1O3Te1,-1.1712223490833338,0.014133736875000125
mp-22991,Cs1I3V1,-1.3325575279999982,0.0
mp-767772,F9Li3V2,-3.1657300737499994,0.05174845154766012
mp-15999,Au1Li3S2,-1.2068271743749996,0.0
mp-24012,H1Ho1Se1,-1.654941534270833,0.0
mp-18074,F3Nd1,-4.214512377916665,0.0
mp-762329,Li7O24P7Sb2,-2.538614263791667,0.07403722731261304
mp-552292,Bi2I1O4Sm1,-2.316719530000001,0.0
mp-557964,Li9N1S3,-1.1737234672596153,0.008493466923076936
mp-600032,O2Si1,-3.024261237777777,0.0
mp-643431,Ag1H4N1S4W1,-0.5962611801515145,0.019822481249999736
mp-29357,C1Cl14Zr6,-1.999854885833334,0.0
mp-554038,Ca1O6Ta2,-3.4054345041296292,0.0
mp-18042,O4Sr1Tb2,-3.6504437935714305,0.00871075160718807
mp-18702,Ag1O3P1,-1.7353981853452367,0.0
mp-581922,Br3Cl4Cs1Mo3,-1.4285245191300937,0.0
mp-557373,Cu2S4W1,-0.5358480558928562,0.003522581666667333
mp-614803,Cs2O3Te1,-1.8279211480795023,0.0
mp-631519,B1Cl2Tl1,0.42078487187499825,1.5578376588888905
mp-555340,As1F12I1,-1.7974666635714283,0.0
mp-755789,Be2Na2O3,-2.3501632799076364,0.035383957142855645
mp-557836,B2Na5O13P3,-2.680559647898193,0.0
mp-38819,Ho10O27Ti6,-3.539998560116276,0.0920379226744012
mp-764846,F4Li2Mn1,-3.0196313961330055,0.01941146571428882
mp-695373,Ag7Al11Na4O48Si13,-2.78116882297812,0.1261418421086622
mp-21713,Cu1In3K2Se6,-0.9829732927135412,0.0
mp-571379,Cl7Ga2In1,-1.2095050857499998,0.0
mp-753683,F2O1Sn2,-2.161457790250001,0.0
mp-556347,Cl5K2O1Re1,-1.785996186916666,0.024005817812406367
mp-703527,C1H2N2,-0.13097331575000054,0.13961401016666639
mp-6300,Hg1Rb1Sb1Se3,-0.6272917801562509,0.0
mp-19100,Ca1Mo1O6Sr2,-2.8559191615833326,0.0
mp-560349,La3Nb1O7,-3.72444689125,0.0
mp-15896,Cu2Se3Si1,-0.35230716369791537,0.0
mp-540689,Ba2S4Sn1,-1.6981814751785704,0.0
mp-769246,O9Sr4Ta2,-3.419596267144446,0.0
mp-735512,Cl2Cr1H17N4O3,-0.89887615199074,0.0
mp-675469,O12Sc4Zr3,-3.8731333439473676,0.055743361279580406
mp-6977,Be3N2,-1.2175056349999998,0.0
mp-7714,Li4O5U1,-2.8944922707083336,0.0
mp-753668,Ba2Gd1O6Sb1,-3.05759483725,0.0
mp-757796,Al2H10O17S3,-1.849515414999999,0.001284969560545468
mp-19183,Li2Ni1O2,-1.6315667408333325,0.08186355399999438
mp-743881,H4K2O19P4V3,-2.396802358142857,0.0
mp-5248,As3Na5Sn1,-0.4187892539176248,0.0
mp-37990,Al1O4P1,-3.101464135107141,0.0
mp-772825,Be1O6Ta2,-3.184938718611112,0.09945498777778165
mp-17112,Au1Ge4K3,-0.26950118021875324,0.0
mp-757964,Li1O16P5Sn2,-2.4354274687499995,0.08670690501736367
mp-23063,Ba4Cl6O1,-2.8506441759090895,0.0
mp-556576,S1Zn1,-1.0499461571875002,0.0
mp-1019381,Al7B1O18Si3,-3.3287060982471264,0.017034474655158626
mp-7684,As1Se3Tl3,-0.3832184913839285,0.0
mp-7667,K2S3,-1.0920755840750005,0.0
mp-21283,Cs2O3Pb1,-1.5410640353520115,0.0
mp-675475,Br4Li2Mn1,-1.5447614792282427,0.014074028571428698
mp-604773,Cl1H56Mo8N12O56P9,-1.5057026905633808,0.04131696207963747
mp-680122,B5O8Tl1,-2.437690558928572,0.0
mp-557992,Cl1In1O3Te1,-1.6768151167361112,0.0
mp-17220,Rb3S4Ta1,-1.4857036431041664,0.0
mp-28013,I2Mn1,-0.7401451926436788,0.0
mp-4066,Ga1K1O2,-2.05334675859375,0.0
mp-756591,Nb1O7Sm3,-3.55244895409091,0.0014058730681970712
mp-12535,K2Te2Zn1,-1.0357802345666662,0.0
mp-686239,La7Li25Nb8O48Sr5,-2.867871852992831,0.10407725103947289
mp-740717,H4Li1N1O4S1,-1.4742560842803025,0.0