Material ID,Compound,Energy,Hull Distance
mp-567555,C2Cl9Pr5,-2.171712017395832,0.003744440602703847
mp-567530,Cl3K1Mn1,-1.8184382256862068,0.0
mp-5481,Co1Na6S4,-1.0900607428918496,0.05700964689393973
mp-29062,F12Th1Zr2,-4.1769118370000005,0.0
mp-769079,Ga1O3Sc1,-2.982994730666667,0.0046807785833102855
mp-19126,Cr1Nd1O4,-2.8047069487499976,0.0
mp-10464,Ca1F2,-4.18919505,0.0
mp-2979,Ge1N2Zn1,-0.35987193625000025,0.0
mp-753160,Bi1F1O1,-2.207839006666667,0.0
mp-28011,S3Sn2Tl2,-0.6204597301488093,0.0
mp-755313,O3Sc2,-3.826212898,0.0
mp-769355,Ag1H3O2,-0.9421156994444436,0.09479941520833386
mp-31755,Fe1O6Ta2,-2.9792912686111115,0.0
mp-690785,H6Na2Pt1,-0.4371965336111114,0.0
mp-468,Al1F3,-3.867549461875,0.0
mp-12953,Ag1Te2Tm1,-1.0837395291666665,0.0
mp-570370,P1Se3Sn1,-0.5255611825729168,0.0
mp-3098,Al1Cu1O2,-2.3283895037499995,0.0
mp-557537,N12O1P6Zn4,-0.7509062997981373,0.0
mp-18908,Ni1O6Sr2Te1,-2.3161563182500005,0.0
mp-769577,Cr3Li2O8V1,-2.318382099761903,0.028703505237625597
mp-556927,F4Fe1Rb1,-2.770792241875,0.0
mp-620029,Cl2Mo1,-1.3442111233333331,0.0
mp-27670,In2Rb4S5,-1.2293042814393929,0.003595993409105476
mp-777667,Li1O5V2,-2.455035894635418,0.0
mp-557179,Na1S2Sb1,-0.9066756557004316,0.0
mp-27794,B8Ba1O13,-2.9450749706628794,0.0
mp-774192,Li2O3V1,-2.4751547636111115,0.021653302083345
mp-14837,O7Se3Si2Sm4,-3.1843447540332024,0.004805998439691539
mp-644015,H1K1O7Se2V1,-1.7329459974114574,0.0
mp-555140,Cs2Ga1Li3O4,-2.003272530681035,0.0
mp-27549,Ag1Bi1K2,-0.43151618374999856,0.0
mp-567505,C1Si1,-0.20338001500000047,0.0
mp-556831,Al1Cl5N2S2Se1,-0.8253983894176131,0.07523699327433565
mp-762387,Li2Ni1O2,-1.081594560686274,0.08186355399999438
mp-677636,Nb10O47Sr22,-3.2003282915506324,0.0763026856329154
mp-23612,B6Br1K3O10,-2.7375494260875,0.0
mp-541162,Ba2F10Mg3,-3.9538542389999995,0.006406214000000432
mp-757192,O7P2Sn1,-2.5278664047916655,0.0
mp-16913,Ag2O3Se1,-0.8285477613628469,0.0
mp-600027,O2Si1,-3.256536697500001,0.0
mp-760017,Li2O3Ti1,-2.8239907859722218,0.0
mp-559208,O7Si2Sr1Ti1,-3.3968368705681815,0.015559528560428052
mp-556646,F4Fe1Rb1,-2.8103026345833335,0.0
mp-14587,P4Zn1,-0.08566377966666679,0.06257574789285755
mp-767687,Li4Ni1O7Si2,-2.6215245039880943,0.02234124857213666
mp-34477,Li1S2Sm1,-2.048270248333333,0.0
mp-775962,Na4O5V2,-2.0134821861833854,0.08932749136359903
mp-757946,Li2O7P2Sn1,-2.50968484454861,0.017169976038809764
mp-560622,B10Ca1La2O19,-3.144806509505207,0.0
mp-2659,Li1N3,-0.20582152572916712,0.0
mp-757349,Bi1Li1O4Si1,-2.460996948333333,0.023689681258661364
mp-763489,Li1O4P1V1,-2.5602305280952384,0.009706593512077635
mp-672253,Cl1Cu1Hg1S1,-0.6239872139062497,0.013393002359741057
mp-698350,Al1C6H10Na3O17,-1.658741638422647,0.05249751231399775
mp-24473,Be1H4N1O4P1,-1.850180631558429,0.0
mp-35417,Li3O4Ta1,-2.7836115484166655,0.0
mp-532413,B7Li5S13,-1.0025465984583326,0.0
mp-5563,Ag5Ge1O4,-0.8137329585833335,0.0
mp-22995,Ag3I1S1,-0.27701369262500036,0.054318345000000434
mp-764056,Na3Ni1O2,-1.2871923410727968,0.10958867680554067
mp-3211,Nd2O2S1,-3.4067574925624995,0.0
mp-767398,As1Gd3O7,-3.266498346477272,0.035021393863636584
mp-560088,Cs2F5Li3,-2.9495223758362075,0.09143267499998728
mp-772793,Dy2Ge2O7,-3.062093178295453,0.0
mp-675067,S4Sm2Zn1,-1.8250864485714284,0.1686047028571888
mp-561635,Cs1S4Si1Sm1,-1.7322800310221678,0.0
mp-559583,Bi1O13P3Pb4,-2.269065965187075,0.02343926880951875
mp-3739,Cu1Nd1Se2,-1.4522591682812482,0.0
mp-17015,Ge1K4O4,-1.9628673824444443,0.0
mp-626417,Cs1H3O2,-1.3043782377083346,0.0
mp-762018,Co1Li1O4P1,-2.3901958768537415,0.0
mp-776264,F4Fe1Li1,-2.82155927138889,0.002276242685136154
mp-557311,Ge1O4Sr2,-2.909090057857142,0.0
mp-27999,Cu1K5Sb2,-0.4070575918750001,0.0
mp-18914,K2Mo1O4,-2.210953630857144,0.0
mp-685041,Ho2Se3,-2.09773593290625,0.0
mp-689964,Co1O7P2,-2.040895675041667,0.061633546687245654
mp-1005666,Al3C2O5Sc3,-2.5634392430769237,0.018067579102655884
mp-29705,Rb6S7Sn2,-1.228317907333332,0.0
mp-572332,Cs2F10O1Sb2,-2.8430811203074713,0.002971589941233314
mp-753731,Ba2Ca1I6,-1.9924781283333328,0.006904217777777709
mp-557473,Ge2K5Li1O7,-2.0849678986388875,0.0
mp-557303,Ag2Cl1N1O3,-0.6935424342261898,0.0047139717857251585
mp-15703,Be1C1N2,-0.5627347393750011,0.0
mp-567928,Bi3Cs1Se5,-0.700353590868057,0.0
mp-720586,Ca1Cl1H4N1O5,-1.563517226458334,0.0
mp-17941,B4Na2O7,-2.546159312884615,0.0
mp-16167,Na2Se5Sn2,-0.8767309813308183,0.017784435509272986
mp-24757,Al1B1H5N1O9P2,-2.1886789041885972,0.0
mp-775803,N2O1Ti2,-2.1261810915833337,0.05300393101133736
mp-770889,La2O6W1,-3.2687969338888894,0.0
mp-755445,Cu1Li2O4P1,-2.2884955776636895,0.04814798843522272
mp-685249,K2O5Os1,-1.7956532950416662,0.0
mp-558243,Ba2Cl1In1O3,-2.6443210863095232,0.0
mp-5142,Ir2Sn3Te3,-0.2749981110937547,0.0
mp-770901,C1Fe1Li1O7S1,-1.8963150932007564,0.0488659668182107
mp-680731,Te3Tl2,-0.2033801779999976,0.017272946500000063
mp-561268,As3Cl1O6Pb2,-1.64529047875,0.0
mp-29176,Na8O18Si7,-2.6696994578030298,0.053336115909105655
mp-14780,Mn1Na6Se4,-1.14806490651058,0.0
mp-770655,Fe5Li3O9,-1.796270953088235,0.06714000323524558
mp-559000,F6I1Sb1Se6,-1.4094205802901787,0.0
mp-762922,F1Li2O2V1,-2.6247947098611117,0.006646839166824255
mp-29889,Cl4Pd1Tl2,-1.1779069538095257,0.0
mp-754354,Ba4F6O1,-3.9066434998863637,0.013507137272723407
mp-753233,F8O5Sb6,-2.2395557891447364,0.06870442759870493
mp-5487,O5Si1Sr3,-3.2255726561111118,0.005588369444338308
mp-638061,Al1Cl4In1,-1.7509152108333332,0.0
mp-777394,N2O1Sn2,-0.6071588857499997,0.03356443029799792
mp-510,O2Ta1,-3.0585667172916664,0.055210791166659355
mp-1020181,B6Na2O11Zn1,-2.687633508467672,0.0020324472503755685
mp-772426,Cr3Li2O10,-1.7051836889444445,0.09374515549998771
mp-18867,Ba3O9W2,-2.8020251401785736,0.004766557678528167
mp-768864,K1Nd1O2,-2.9494095069999995,0.0
mp-557225,Cu6Ge1S8W1,-0.6408926193749993,0.0
mp-628742,Cs5Sb8,-0.4900426623076922,0.0
mp-560538,Al1Na3S3,-1.3968371604910712,0.0
mp-695403,Ba2La2Mg1O12Ti3,-3.567178978750001,0.026543469040369416
mp-559805,Cl1Ho1O3Te1,-2.605621438402777,0.0
mp-761849,Li3Na5O14Ti5,-2.886383631057896,0.01986075544455814
mp-560155,O2Si1,-3.01870320888889,0.0
mp-29168,Bi1Rb3Se3,-1.1500908495758928,0.0
mp-757111,F3O1Sb1,-2.333780102,0.008813601199900845
mp-27911,As1Bi1O4,-1.7752247608333331,0.0
mp-633158,F1H6Na1O6Te1,-1.5291880695363982,0.0
mp-698449,C2F1H12N6O3P1,-0.9324832996833333,0.0031375489701171945
mp-29568,Cl8Ru1S3,-0.7223888724479165,0.0
mp-561112,Cl2O3Se1Zn2,-1.5238376441992192,0.0
mp-542130,Al1B1H1O9P2Rb1,-2.7621853851468243,0.0
mp-758688,Cu1F4Li2,-2.545711499761904,0.017085583571521568
mp-767657,Co3Li4Nb3O16Ti2,-2.5801081332142854,0.08278752989179645
mp-558033,Ca3Na2O9Ta2,-3.120872691557831,0.06751577359362759
mp-770948,C1Co1Na3O7P1,-2.2349042887875776,0.0
mp-33631,O4Ti1Zn2,-2.4772520990476186,0.029660945833288314
mp-555880,B2Bi2O7Zn1,-1.9768664854166644,0.0
mp-3151,Li3O4Ta1,-2.8478206537291655,0.0
mp-23295,Cl1Rb1,-2.159987476875001,0.0
mp-541236,As3Hf1Na5,-0.7535943436111125,0.0
mp-1020023,Al1Li3O5Si1,-2.975348056375,0.0
mp-556419,F3O2Re1,-2.0315549770833337,0.0
mp-755144,Li1Na1O1,-1.6729306140708804,0.07094279999999475
mp-10392,Cd1O6Pt1Sr3,-2.336029308181816,0.0
mp-3457,Er1O14P5,-2.819327516535713,0.0
mp-557685,I1Nb1O2,-2.1395482050000005,0.020911059899983542
mp-1020027,Li4O7P2,-2.7231420182783874,0.0
mp-27827,Cl6Rb2Ti1,-2.0247925393518518,0.0
mp-29845,Cl3Cs1Hg1,-1.5548779457643724,0.0
mp-28792,Cl11N3P4,-1.0189039651984142,0.0
mp-558481,Ga1N1O1Zn1,-1.1661267190624995,0.059143006875013615
mp-3104,Ba1N2Zr1,-1.4238643600000014,0.0
mp-704632,Ba2Fe4O11Sm2,-2.5317845953947367,0.03120315582706879
mp-763100,F4Li1Mn1,-2.872403399794061,0.0
mp-4843,Ce1O4Zr1,-3.711094367916663,0.043321864166657065
mp-600111,O2Si1,-3.2489731939583333,0.0
mp-553308,Cs1Nd1O2,-2.850343054482758,0.0
mp-23452,Br1F5Sn3,-2.3392880327777785,0.0
mp-1840,O2Ti1,-3.3189781280555564,0.0
mp-653454,Cl4K2Zn1,-1.8347093499999991,0.0
mp-695354,Na3O12P1Si2Zr2,-3.137032574439039,0.0
mp-3589,B1O4P1,-2.516155868412698,0.0
mp-1020609,O4Si1Zn2,-2.364499926785714,0.0
mp-19885,Ga1In1S3,-0.7623825283541678,0.0
mp-557702,I5K2N1O1Ru1,-1.0140196192250002,0.0
mp-504849,Cs2Li2O4Si1,-2.472255104169859,0.0
mp-3033,O3Rb1Ta1,-3.0349253382499994,0.0
mp-29195,Li1O3P1,-2.7039248734166668,0.0
mp-560950,K2Na1O3Tl1,-1.4410069970907224,0.0
mp-775198,O24P6Ti3W1,-2.670456791995797,0.0
mp-13182,Ge1Li2O5Ti1,-2.7135050941666665,0.0
mp-776484,Li6O29P8Sn3,-2.5812508790139743,0.025108490072699642
mp-27689,Br1H4P1,-0.24751274132936393,0.0
mp-554854,Cs1Lu1O7P2,-3.1682518761915945,0.0
mp-754171,Cs1O1Rb1,-1.0938730798850578,0.06556617666666309
mp-6678,Hg1K1S3Sb1,-0.7698422257916668,0.012459310833443501
mp-626268,Ba1H8O5,-1.3982073099074073,0.0
mp-27243,Br4K2Pt1,-1.3618535167857126,0.005887683571428199
mp-17412,Ba1O4Pr2,-3.4702742576190473,0.0
mp-510725,O7Sr1V3,-2.8097900168181824,0.0045174099431335435
mp-768740,B3Bi5Li2O13,-2.143802490344203,0.03755542394902433
mp-768341,Ba2Br7Y1,-2.43161058,0.0210035267500011
mp-769283,O9Sr4Ta2,-3.3506377981444446,0.0
mp-556330,B2Cs2Ga2O7,-2.5171459471496456,0.0
mp-772116,I5La1Mg1,-1.5745886228571426,0.014744466428569985
mp-22984,Bi1Na1O2,-1.7256979878448266,0.0
mp-18906,Cr1O4P1,-2.5883368050793636,0.0
mp-28848,Bi2Ca2O5,-2.40355728837963,0.007366933426216428
mp-3855,Be1F4Na2,-3.267416988300493,0.0
mp-775784,Hf2N2O1,-2.5337669692500016,0.0
mp-557072,Ba3Nb4O15Ti1,-3.2662391334601453,0.015139753551230106
mp-13998,Al1Na5O4,-2.0266421858749992,0.0
mp-776004,Co1Li4O4,-1.7793080148148148,0.05586202881172911
mp-11623,In1La1O3,-2.93055308025,0.0060919460000491196
mp-706655,B4H8Na2O11,-2.0456157817408043,0.0011724663413627922
mp-776245,N2O1Zr2,-2.2774623381666665,0.0
mp-30004,Br2O1Rb4,-1.6835765810714283,0.00158819571433279
mp-554755,O2Si1,-3.0281130381597237,0.0
mp-555005,Mg2Na3O16P5,-2.798862563512378,0.0
mp-7471,Au1Li3O3,-1.6716956533928575,0.0
mp-769463,Fe5Li11O32Ti8,-2.5713336229166655,0.036116802952749695
mp-761686,Bi1Na2O3,-1.7396750757255746,0.0
mp-760994,Na1O3Sb1,-1.9957797138936784,0.0
mp-568108,Br2In1,-1.2108346299999997,0.0
mp-772900,O6Sm2Te1,-2.792486156944444,0.0
mp-695895,Ba2K4N7O16,-1.0961896323103446,0.38744418037111095
mp-531523,Ga5Li1O8,-2.161932064761904,0.0
mp-31303,N2Pr4Se3,-1.9446593057812491,0.0
mp-4038,N1S3Sm3,-2.249335844598215,0.0008643849999957963
mp-756063,Nb1O3Rb1,-2.8121500205,0.0
mp-771568,Ca2I6Sr1,-1.8619083049074077,0.032362992458701986
mp-23843,H1Li1O3Se1,-1.6039822515711808,0.0
mp-556822,Cu1Na2O7P2,-2.372377308920361,0.0
mp-553932,Ga1O4P1,-2.3298418096626983,0.0
mp-4820,O4Si1Zr1,-3.4559363233333342,0.0
mp-735513,Cl1Co1H20N6O4S2,-0.7444708994485296,0.027656288163262176
mp-22313,Na2O2Pt1,-1.3703891001206892,0.0
mp-767820,F3Li4O13V8,-2.5939998420833326,0.07153545148814137
mp-768417,Al1La1O3,-3.6887203211666675,0.0
mp-28035,Ba1P10,-0.2570918210389595,0.001854794870129194
mp-769349,Ba1O16Ta6,-3.3809556886956527,0.0
mp-567196,Cl9Cs3Sb2,-1.8159906266995078,0.0
mp-556489,O6Sn1Ta2,-2.9833550249629632,0.0
mp-3193,Na2O5Si2,-2.7532614888888896,0.0
mp-1020019,Li2N1O2P1,-2.1715478710515868,0.0
mp-3797,As1K3S4,-1.0364100103124994,0.0
mp-642655,F5Gd1K2,-3.7227808527500006,0.0
mp-542289,Hg1N1O3,-0.3197988075000012,0.0
mp-23083,As4Br1K1O6,-1.7123562718541667,0.0
mp-559454,Cs2F6Fe1K1,-2.951364967386207,0.0
mp-10644,Se4Ta1Tl3,-0.7144106791979183,0.0
mp-760078,Ba4O26Ti11,-3.496336009613821,0.02231990163405532
mp-20256,In1K3P2,-0.35750552961706344,0.0
mp-568105,B1Ba2Cl17Zr6,-2.324833717275641,0.0
mp-767447,Li1O4Si1V1,-2.7888995283333338,0.01105624547264737
mp-582988,Bi12Cl12Pt1,-0.9452849671999997,0.015547754416668908
mp-775824,N2O1Zr2,-2.4447143562500004,0.0
mp-756029,N2O1Zr2,-2.2584193314999994,0.0
mp-29094,Nd3O7P1,-3.6309038703409104,0.0
mp-625111,H8O6Pt1,-0.8990062066666666,0.04856876099999947
mp-23883,B1Be2H1O4,-2.5582635199999997,0.0
mp-568592,Cl1N1Zr1,-2.1084081654166673,0.0
mp-571020,Cs1H3Mg1,-0.3319698369166673,0.0
mp-555188,Ba17Ho16O57Pt4Zn8,-2.9919024658578417,0.0
mp-556436,Br1F15Sb2,-2.1757567751388893,0.0
mp-752467,F1Nb1O2,-3.168829475,0.0
mp-37873,Br6Er1Li3,-1.970356827333336,0.0
mp-556123,B4O11Sc2Sr2,-3.3403214608552623,0.006324951937991249
mp-28883,Ge1O7P2,-2.4814883812916655,0.0
mp-560902,F2Mn1,-2.9223133381609188,0.0
mp-7439,Cu3K3P2,-0.4072855196502978,0.0
mp-557080,H17N5S3Si1,-0.5479557903365381,0.0
mp-571219,Bi1I6Tl3,-0.8524928705000022,0.009106145250000263
mp-693763,Al8F5H34N7O36P8,-2.0373280808078227,0.019312560904323824
mp-561132,Ge2K2Pb1S6,-1.0060751640681824,0.0
mp-676448,Cs1F5O1Ti1Zn1,-3.2073148031098344,0.0
mp-27714,F1H3O1,-1.5359842367500007,0.0
mp-28124,F5H8N1,-1.3698525586607135,0.0
mp-23862,Ba1H1I1,-1.4171048983333334,0.0
mp-557092,Cl5O6Si2Y3,-3.209459248750001,0.013406998379842161
mp-542609,Ag1As1S2,-0.14796730411458014,0.000900588541666858
mp-16837,Ag1Nb3O8,-2.6550281038888883,0.06992126682294497
mp-569867,P3Sr1,-0.7546754528571427,0.0
mp-684015,Au1Bi9Br9,-0.7556894046052633,0.052934927894738276
mp-757624,La4O9Sr3,-3.5174859796093756,0.057933225937516486
mp-753478,Bi1F1O1,-2.212351080833334,0.0
mp-770560,C4Cr2Na4O16S1,-2.052727987148787,0.00383736371892372
mp-23495,Br4K2Zn1,-1.7763038215714284,0.0
mp-557227,Ca12F1K1O26S2Si4,-3.238194817375,0.0008390340489005835
mp-30900,Bi1O4Ta1,-2.7067301224999993,0.0
mp-19407,Mn1O4W1,-2.213700994655163,0.0
mp-569450,B6C1Li1,-0.2441465213541667,0.0
mp-776348,Bi2C4Na4O16S1,-1.9300540560863666,0.02439894973791889
mp-755483,Al2O3,-3.253863643,0.0
mp-768814,Ge1O5Y2,-3.3348785202604176,0.0
mp-766581,Li4S4Ti1,-1.4888855732407411,0.0
mp-551243,Ba1Bi1I1O2,-2.2046703144999995,0.0
mp-733849,H2Li2O7P2,-2.3603194384065933,0.025626530705163637
mp-1018138,I2V1,-0.7749341766666665,0.0
mp-769734,Fe1O3Sc1,-2.7547291927499997,0.04372020874997133
mp-764159,F5O1V2,-3.047145625520833,0.0
mp-754454,Ag1Cd1O2,-0.6356430654761905,0.025622823750001134
mp-699587,Mn1O21Pb8Si6,-2.455737588067528,0.0
mp-558368,Ag1Bi2Cl1S3,-0.7233880008630952,0.007170169166665146
mp-3795,F3Na1Zn1,-2.769232088810345,0.0
mp-707317,Er1H1O12P4,-2.788640803796296,0.0
mp-554946,O2Si1,-3.2566150386111112,0.0
mp-18726,Cr1Ni1O4,-1.6462398633333326,0.0
mp-680301,As1K3O4,-2.021162466781249,0.0
mp-643370,Ba2H6Mg1,-0.5507999355555557,0.0
mp-616026,In1P3Sr3,-1.122838016989795,0.0
mp-24424,Ba1Br1H1,-1.6903039070833301,0.0
mp-505212,Au1Cs3O1,-0.8739484945086208,0.0
mp-6166,Cu1O1Pr1S1,-2.2450064417187496,0.008440991406682752
mp-19024,Ho1O3V1,-3.3455762934999997,0.0
mp-583714,O9Pr5,-3.2234532154464284,0.05346570308037103
mp-14142,O3Ti1Zn1,-2.793320963916666,0.028041437166692162
mp-753806,B1O3Sb1,-1.960431904250001,0.04677055691644192
mp-2071,P2Zn3,-0.18831408583333342,0.0
mp-2879,O3Sn1Sr1,-2.492659234999999,0.0
mp-29983,Cl4Cs6O1,-1.969085610576019,0.0
mp-555490,F7K1O4Re2,-2.5481524349821427,0.0
mp-27251,Bi2O6Te1,-1.6287762365740737,0.0
mp-13108,Hf1O3Sr1,-3.780818810583333,0.0
mp-16455,Ba1Nd2S5Zn1,-2.0621214980555553,0.02096819277798782
mp-754976,Be1Cs2O2,-1.971696415672414,0.0
mp-707440,H10Mg3Sr2,-0.45419213822222226,0.002795066333332959
mp-771918,F1Li2Mn1O4P1,-2.7258575782423367,0.027276596716803898
mp-769539,Ge1Li7O8V1,-2.362281917843137,0.03044455999873547
mp-24817,Be1H3Li1,-0.3274231897500002,0.0
mp-766607,Mn16Na7O32,-1.9253384399373028,0.03670099903178616
mp-1018040,Mg1Se1,-1.4686255020312498,0.0
mp-20199,P1Pb1S3,-0.7265524800416671,0.0
mp-557132,F7O3Os2,-1.9019870134374994,0.0
mp-18634,Cd1O3S1,-1.3739790192291688,0.07295250724999107
mp-640058,I2Pb1,-0.9505878644444441,0.0
mp-753486,Ba1Ca1I4,-1.955033379166667,0.027401498749999753
mp-643547,Co1H2O5S1,-1.611750037152777,0.0
mp-7375,K1Nb1O3,-2.684850211749999,0.0
mp-22464,Na1O3,-0.5763720121874991,0.07888201843749942
mp-559607,O5P1Ti1Tl1,-2.7848778473437505,0.0
mp-753883,Bi2La4O9,-3.089806983916667,0.06479820233298407
mp-776659,F1Li1O4P1V1,-2.774592697247023,0.0
mp-721583,Cd1H2O5Se1,-1.310426045399305,0.0
mp-40189,Ba1La1Li1O6Te1,-2.66717750575,0.029419836086642802
mp-756979,Cl1O1Rb3,-1.57929853675,0.0
mp-23798,F2H4O1,-1.6188673280357133,0.0
mp-22147,Hf1Pb1S3,-1.4561639203749999,0.004878762500000633
mp-554041,Al2B2Na2O7,-2.9443075395070726,0.0
mp-541837,Bi2Se3,-0.6892397914062499,0.0
mp-31266,P1S4Y1,-1.3657099591666675,0.0
mp-5259,Al1F4Rb1,-3.6422502735416664,0.0
mp-21836,In12K2Se19,-0.88278996603125,0.0
mp-754540,Ca1I4Pb1,-1.4089041983333364,0.00010831875000076134
mp-19448,Ni3O6Te1,-1.380061739666666,0.0
mp-615746,Bi1F4Rb1,-2.823975594583333,0.047941254375044075
mp-757403,Cu7Na7O13,-1.2986409288745209,0.04173003796299818
mp-23475,Cl6Pb1Rb2,-1.7062683794444449,0.0
mp-4855,Li2O4Se1,-1.8485524993824396,0.0
mp-18578,As1O4Tl1Zn1,-1.4406315714285722,0.0
mp-18849,Fe2O7P2,-2.37288054560606,0.0
mp-684969,S3Sc2,-2.167366372687499,0.0
mp-38103,Cl1Na1O4,-1.0043546269252872,0.0
mp-2084,Ir3Si5,-0.5859030490625008,0.0
mp-756656,Gd3In1O6,-3.3699486337500004,0.011105416472543084
mp-764379,F3O2V2,-2.843971397142858,0.058986547143016974
mp-5489,Lu1O4Ta1,-3.7563858058333324,0.0
mp-557738,Bi1Li3O4,-1.8892133812500003,0.0
mp-556390,O17Rb10Si6,-2.70095674280303,0.0007338639142777524
mp-769953,O7Tb2Ti2,-3.7679760225378787,0.0
mp-554451,Ba1F4Fe1,-3.373414251666665,0.0025056666668200243
mp-17741,O5Re1Sm2,-3.0474945809374994,0.0
mp-27315,Ca1F6Ti1,-3.869896830208333,0.0
mp-768907,O6Sr3Te1,-2.723860195166665,0.0
mp-754369,Mg1Na4O3,-1.7726044146821125,0.07021240812502683
mp-766009,O24Tm5Y11,-3.9462547589999986,0.002306411453118784
mp-7650,O2Rb1Sc1,-3.0012125874999986,0.0
mp-6121,Ba1O5Y2Zn1,-3.2365023832870374,0.020891937962956162
mp-703468,H5Na3O6Si1,-1.7541701943333323,0.0024550439442466636
mp-27839,Cl6K2Ti1,-2.1843390310370365,0.0
mp-554066,Ba3Lu2O11Zn5,-2.670709645515872,0.0015626499404685237
mp-630851,Cs3Na1Pb4,-0.38567396750000427,0.0
mp-754535,Ag1La1O2,-2.565877544166666,0.0
mp-555779,S1Zn1,-0.9620422089062508,0.0
mp-707200,H2Na4O13P4,-2.447814163186532,0.023623563550847725
mp-757106,Li1O4P1Sn1,-2.393169243639455,0.005276800415974289
mp-771411,Ge1O5Sr3,-2.913822097638889,0.03599318750000672
mp-19205,Er1O3V1,-3.3112792537500013,0.0
mp-17473,Al2As3Na2,-0.6375267442857141,0.0
mp-505824,C2Cs2Pd1,0.04663479713792995,0.06837273482758591
mp-18139,As3Na5Si1,-0.5586413491666681,0.0
mp-755003,Bi1La1O3,-2.735702768499999,0.03472463674962256
mp-5926,Ca1F3K1,-3.6972455767499994,0.0
mp-775929,La2N2Nb2O5,-2.8566784244318186,0.04670438470360206
mp-775656,Li4Mn3Nb2O16V3,-2.5158605109688006,0.051280730997711084
mp-30242,H2Mg4O5,-2.4787246593181815,0.013708753636365145
mp-3138,Na8Sb4Sn1,-0.5224297692307687,0.0
mp-19220,Ca1Ni1O6Si2,-2.9497325274999993,0.005312805749439065
mp-769502,Fe3Li4Nb2O10,-2.3400038949122814,0.038641429210462035
mp-553990,B2Ba4N4O1,-1.4651334496212123,0.011155456818876208
mp-29244,Cd2I1P3,-0.27704764065476084,0.017628360917317343
mp-540805,Ba2Ge1S4,-1.718322084285704,0.0
mp-6787,B4Li1O7Rb1,-2.7933652713461536,0.0
mp-27882,Cl6Cs2Ge1,-1.5756755727777783,0.0
mp-762623,Fe1Li1O4Si1,-2.48644196952381,0.001767453928728965
mp-556087,Cl1N3Pr6S4,-2.043669175357143,0.04443692208333694
mp-1013544,As1Ca3Sb1,-0.9471447835000003,0.16343967960606562
mp-753650,Ba1Cl5La1,-2.83494719,0.06202267517857507
mp-22577,O6Pb3S1,-1.7387543700624994,0.004375956749999688
mp-753477,Bi1Li3S3,-1.120867075714285,0.02562093928572016
mp-541040,Be2Ge1O7Y2,-3.27253486204861,0.0
mp-555342,Ca1Na2O4Si1,-2.7998670707004303,0.06696007187511732
mp-555021,O3Pb1Te1,-1.545590918833333,0.0
mp-6983,Ag1Na1O1,-1.0471798998227968,0.0
mp-5853,Li1N3Si2,-1.323993021388888,0.0
mp-772089,Cl5La1Sr1,-2.8189080575595247,0.04997082071429101
mp-768313,Dy2O6Te1,-3.0206931872222222,0.0
mp-761842,Hf3O8Sn1,-3.3821748356250034,0.025944748958328507
mp-675798,F4Ho1Na1,-4.001819240833332,0.0
mp-769599,C1Cr1Na1O7P1,-2.2155782253304603,0.05551685041052226
mp-505310,Cu2Fe2O5S2Sr3,-1.9396586630357138,0.023503158871678562
mp-714960,O2V1,-2.322608968333334,0.0
mp-30972,Na2O7Sb4,-1.6180764446153852,0.0
mp-570609,Cl4Ga1Tl1,-1.565065395972222,0.0
mp-773173,Co4O9Ta2,-2.228430033977778,0.01309779299997634
mp-554022,O7P2Sn2,-2.3703256643560606,0.0
mp-1019721,B1Cs1Mg1O3,-2.6236288235763894,0.001445061319565492
mp-16165,F1Ho3O10Si3,-3.725936478823529,0.0