Material ID,Compound,Energy,Hull Distance
mp-11824,Ca3N1P1,-1.205423485345237,0.0
mp-667,S1Tl2,-0.42371847778934824,0.0
mp-27173,P4Ru1,-0.5147035367142848,0.0
mp-28079,Mn2Na2S3,-1.0127569558343603,0.02376614916666637
mp-11020,Ag1Ga1O2,-1.5802041210416657,0.0
mp-23831,H1Nd1O5S1,-2.5199723195312496,0.0
mp-542903,O3Pb1Zr1,-2.7509728221874865,0.026087333438022144
mp-28590,As2Hg4I3,-0.30902383319444443,0.005279643888889105
mp-695648,Al7K1Na6O32Si9,-2.8995463435550155,0.2771717676369834
mp-675004,Bi7Ge6O22,-1.8183766549285718,0.11747979628571617
mp-579058,Cs4S13Tc6,-0.9735205005027173,0.0
mp-764423,Cr1F4Li2,-2.955822504880952,0.06421864165298784
mp-3904,Ge1Mg2O4,-2.5917404971428573,0.0
mp-769560,Li2O8Ti1V3,-2.659555951785715,0.0056396167844776
mp-757886,H1Nd1O11S3,-2.1630220766406243,0.0
mp-2931,Li2O3Ti1,-2.9017515316666667,0.0
mp-775788,Hf2N2O1,-2.447560101750001,0.0
mp-770369,C1Li1Ni1O7S1,-1.7538957195643936,0.06279400346581486
mp-557954,Ga1N5O14,-0.8794285298749998,0.0
mp-774472,O1Pr1S1,-2.8048357323263886,0.0
mp-648053,Na1O3P1,-2.6114667392270112,0.0
mp-29557,Cl7Cu1W3,-1.0754472398863635,0.0
mp-542013,Rb4Se14Zr3,-1.203789318660716,0.0
mp-17148,Ga1Na3Se3,-1.1541197167410726,0.0
mp-557457,F1O3Se1Tm1,-2.8285814687934034,0.0
mp-2809,S3Sb2,-0.2866659121874989,0.0
mp-31370,Na2O5S2,-1.9270020397892722,0.053660578073661945
mp-559127,K2O19Si8Zn2,-2.9895260202258056,0.006388297231178934
mp-625555,Br1H7O3,-1.1338412713636365,0.01610049949147132
mp-16559,Cu1Ho2K1Se4,-1.7344577702968746,0.0
mp-14890,Fe2Rb9S7,-0.9897138465277769,0.0
mp-772582,O9Sr3W2,-2.7311272784821434,0.07186847202386407
mp-675748,Ge1S4Zn2,-0.8773694792857134,0.014854812589285591
mp-680185,Cs1I3Re6Se8,-0.8186045029669542,0.0
mp-29754,Li1N1Sr1,-0.6153505727777772,0.0
mp-755314,Hf2N2O1,-2.4610893890833334,0.0
mp-774407,Hg2O7W2,-1.7116593837499996,0.00570043954545599
mp-691119,Bi14Mo1O24,-1.716203703846154,0.0
mp-4559,Ba1C1O3,-2.658816325999999,0.0
mp-555594,S1Zn1,-0.9619742722395834,0.0
mp-3831,O4P1Sm1,-3.306450045912699,0.0
mp-766548,Li4O24Ti11,-3.302777925641026,0.03988742405793561
mp-758168,H1Na1O7Se2Zn2,-1.5694852355760935,0.0008974988252354876
mp-1020056,Ca3Li1N5Si2,-1.2996959350757586,0.0
mp-1102,Lu1N1,-2.2157058827083347,0.0
mp-569879,Cl18Cs2Pb1Ta6,-1.794107679381864,0.0
mp-14797,Pt2Rb1Se3,-0.7661535472395826,0.0
mp-6290,In1Na1O7P2,-2.5781361520301527,0.0
mp-1019746,Ca4K2O21Si8,-3.2896587528500008,0.0
mp-705332,Co1Li1O7P2,-2.2881496872835485,0.0
mp-554675,Bi2O9Sr1Ta2,-2.822863375386905,0.0
mp-23768,Al1F5H4O2Zn1,-2.378829402115384,0.003211420000346047
mp-13170,Gd1K1Na1Nb1O5,-3.011877070366859,0.0
mp-559968,As1Na2Nb1O6,-2.3826567565258614,0.0
mp-757144,H8O5Rb2,-1.3592488663333333,0.05722477783333299
mp-6426,Mg1Na2O4Si1,-2.7943752115948275,0.0
mp-754192,O5Ti1Tm2,-3.855915528177084,0.0
mp-22189,In6O12Te1,-1.8990640092982454,0.010209403859646514
mp-770036,Cr3Li4Mn3O16V2,-2.271385661683087,0.062439005816108714
mp-770893,Fe2Li4O5,-1.9154690556439384,0.04785811486155434
mp-24118,H10O8S1,-1.1421410421217104,0.0
mp-2460,Er2O3,-3.9538314816666644,0.0
mp-29843,Bi2Cl7Se2,-1.123740775198864,0.0038679832727278292
mp-556968,Na3O4Rb1Sn1,-1.8579019707950184,0.0
mp-38807,O14Re1Y7,-3.5434779676136356,0.04057570761366494
mp-19280,Cr3Na1O8,-1.906223060129309,0.0
mp-770619,Cr1Li24Mn11O36,-2.180620487600575,0.0022740515971359323
mp-531956,Hf3O12Sc4,-3.9774871192105246,0.01614566065787633
mp-768232,O3Rb3Sb1,-1.7786312524999985,0.0
mp-19734,F6Mg1Pb1,-2.72748452125,0.0
mp-644419,H1Li1S1,-0.9351074604861113,0.0
mp-6211,Li1O4Rb1S1,-2.2979907844047607,0.0
mp-764367,F5O1V2,-3.0070108154687496,0.0
mp-690511,Co4K10O9,-1.4125201021739113,0.0
mp-567594,Cs2Hg1I4,-1.291903548830051,0.0
mp-774191,F7Fe3O1,-2.3769663787499993,0.11114360363645304
mp-10933,Nd2S2Te1,-2.1784332481249975,0.0
mp-2231,S1Sn1,-0.4716001876562501,0.0
mp-567498,Cl6Na1Rb2Tm1,-2.4686541008218383,0.0
mp-771640,Ba1I4Sr1,-1.9752435431250002,0.021835488333333746
mp-556049,Br6O1Sr4,-2.6968832082196967,0.0
mp-28177,Cl6Na1Sb1,-1.1045720687499987,0.0
mp-16996,Ga1Li3O5Si1,-2.688937125874999,0.0
mp-5048,Ga1Li1Te2,-0.8397108085416658,0.0
mp-755184,O1Se2Sm2,-2.783426026625,0.010428071749983303
mp-20817,Ge1Pt1Se1,-0.7084225741145845,0.0
mp-27526,F6In1K3,-2.954553157124999,0.0
mp-760927,Na1O5P1Ti1,-2.978326264294438,1.876076943352345e-05
mp-756702,Br1O1Pr1,-3.25596914125,0.0
mp-341,F4Pb1,-1.9928037439999997,0.0
mp-18819,Ni2O7P2,-2.0186546987229432,0.0
mp-705417,Fe11O12,-1.4823967371739126,0.03277568891303788
mp-15113,Na2O7Si3,-2.7363167486805566,0.016567303541559514
mp-558446,Ag1Hg1I1S1,-0.4423584874479167,0.0
mp-696961,Be1F3H4N1,-1.8743931013888886,0.02240728705594582
mp-22937,I2Na4O1,-1.4948554992795569,0.0
mp-17024,Ba2N3Nb1,-1.1723671989583362,0.0
mp-743640,Cr3La8Li3O36Ti9,-3.4249380904237294,0.0658399271166684
mp-29228,Cs1N9Sr1,-0.46133207450888203,0.008514411363636237
mp-6968,Cs2Cu1F6K1,-2.5741389961560346,0.0
mp-21166,Ca1Pb1Sr1,-0.7422091900000017,0.0
mp-31118,O3Sc1Sm1,-3.8409715245,0.0
mp-770519,Al1Li2O4V1,-2.695636971770834,0.02526102843737732
mp-29794,Ba2F6Pd1,-3.294561061666666,0.0
mp-733877,B3Ca1H13O12,-1.8562794081034484,0.012277568793298011
mp-2784,Na2Te1,-1.1278026200000018,0.0
mp-504968,Cl4Fe1Rb1,-1.6494488291666667,0.0
mp-11000,B4Ca1O7,-2.7882734828125586,0.0
mp-669377,Ba2Ca1N4W1,-1.1447165290625003,0.004123254687498967
mp-554627,Br1Cu6P1S5,-0.4742519197802197,0.0011414997115378146
mp-24625,C1H1K1N2,-0.45720827719999946,0.010769057441325192
mp-14115,Li1O2Rh1,-1.5564610752083325,0.0
mp-7372,As1Zn1,-0.19444035124999992,0.018616294765624986
mp-754661,I1N1O3,-0.59797952375,0.03853917896666612
mp-557591,O2Si1,-3.2022798684722225,0.0
mp-759095,H3Li1O16P4Sn2,-2.2895178044482596,0.04047603471073202
mp-3998,La1O4Ta1,-3.705940271666666,0.0
mp-557656,Na1O5Rb1Si2,-2.907093549755746,0.0
mp-22691,In1Se1,-0.6763020120312468,0.0
mp-5459,Nd2O2Te1,-3.2411881793333293,0.0
mp-772918,O6Sr3Te1,-2.6926178217916656,0.0
mp-6770,Ba1La2Mn1S5,-2.1242926333812258,0.0
mp-27869,Ba2Cl1P1,-1.817972328333333,0.0
mp-637194,Cl9Cs3Sc2,-2.5248867695566504,0.0
mp-4174,Ho1Ni1Sb1,-0.9628412183333328,0.0
mp-6296,Cd4K6Se13Sn3,-1.0163456274411058,0.029390072307736322
mp-770372,Ce1Hf1O4,-3.927545021249999,0.04719222208328233
mp-697811,Fe1Li2O7P2,-2.5423935834126983,0.003312129479545215
mp-3955,Al1O4P1,-2.9121241624404752,0.0
mp-697044,Ba2H6Os1,-0.6372898274999999,0.0
mp-730446,Al1F1H10O9S1,-1.7251268130113624,0.0
mp-760805,Ag1F3Li2,-2.400093028055553,0.019543975555609272
mp-10695,S1Zn1,-0.9620711764062513,0.0
mp-761057,Nb4O15Sr5,-3.299938680815972,0.0
mp-21386,Eu1Ir1P1,-1.0821792188571446,0.0
mp-14493,In1Na5O4,-1.5983829054999987,0.0
mp-31691,Cr1Li1O7P2,-2.4673372106926394,0.0
mp-18348,Ga1K1O7P2,-2.4441464508820343,0.0
mp-755663,O7Pb2Ta2,-2.7271472160227264,0.0
mp-558853,As1C3F8N3,-1.509758095833333,0.056942186336499154
mp-763193,F1Li2O2V1,-2.624100647444445,0.006646839166824255
mp-697133,Ca1Cs2H4,-0.4416755450000015,0.0
mp-29909,Ba4I6O1,-2.319999371818183,0.0
mp-556662,O2Si1,-3.1977649491666664,0.0
mp-17429,F7Hf1K1Pd1,-3.1192071538750015,0.0
mp-10623,Rh1Sb1Th1,-1.178002269999998,0.0
mp-561068,As1Bi1O4,-1.7765728258333329,0.0
mp-754834,Er2O2Te1,-3.256244442333332,0.0
mp-28858,Hg1Na2S2,-0.9519581598017268,0.0
mp-31049,Nd1O2,-3.1285732658333316,0.0007905885417116565
mp-770555,Mn1O4P1,-2.3571810750123134,0.0
mp-13603,B4Cd1O7,-2.425421136666666,0.0
mp-16905,Ba2Mn1Te3,-1.4603592646551729,0.0
mp-27255,Ga2S2Te1,-0.6861058871250009,0.0
mp-6655,Be2O7Si1Y2,-3.559031461458332,0.0
mp-504723,Ba2Ni1O6W1,-2.564422338749999,0.0
mp-29641,Ge1Sb4Te7,-0.3660232068055554,0.0031598308333333582
mp-768427,Ba2Br7Y1,-2.4893829321666665,0.0210035267500011
mp-6144,La2Na2O10Ti3,-3.4157600753296133,0.011796423933879944
mp-4991,O7Sn2Tb2,-3.02812175465909,0.0
mp-6238,Ba2O21Ta6Te2,-3.071000042736559,0.0
mp-23807,Al1H1O2,-2.612379010625,0.0
mp-18938,Mo1O4Tl2,-1.7052337835714297,0.0
mp-720710,H2K3N1O7S2,-1.7775796184500001,0.07994527234621364
mp-761148,O20Sn1Ti9,-3.3189943040000003,0.04365882941667441
mp-1016928,Mg1O3Si1,-2.77058353125,0.005957224250073523
mp-28453,Au1Cs1I3,-0.9788123135862069,0.0
mp-556958,La4N2S3,-2.2285191567708327,0.0
mp-639478,O2Si1,-3.0211588008333337,0.0
mp-27356,As1O2,-1.2495444029166667,0.002175681874999391
mp-29500,F16Ge7,-2.2558807460869557,0.002652422826086696
mp-28320,I8Pt3,-0.46609807477272497,0.0
mp-556253,O3Tm2,-3.9939419556666698,0.0
mp-28606,Au1K3Se13,-0.7536399140863966,0.0
mp-5586,Er1Na1O2,-3.1483844733333353,0.0
mp-675716,Mg2O12Zr5,-3.611581547631579,0.03700736105263122
mp-762082,H10N4O17Th1,-1.359977585742187,0.0
mp-23622,Cl1O8Si2Sm3,-3.6217007453571424,0.0
mp-19057,Ca1Ni1O7P2,-2.7223733120833327,0.005644000830019086
mp-11191,Cr1Si2,-0.23563400777777746,0.0
mp-1011858,Co1Na2O7P2,-2.4354290752933423,0.0
mp-38008,Cd1Cl4Li2,-1.702749519761905,0.010904525714286859
mp-775997,O11P2V3,-2.506594860580357,0.0618708675156725
mp-694922,Ba1Cr5La5O18Ti1,-3.219369492694445,0.021483867916352515
mp-755612,Dy1Ga1O3,-3.019929914316667,0.025311473933377116
mp-680284,Rb6S25Ta4,-1.1431049031952365,0.0
mp-753868,F1O1Sb1,-2.1340203533333337,0.0
mp-18975,Na2O12Sr1V4,-2.5331101861978227,0.0
mp-15577,Ga2O9Pr4,-3.1611068734444436,0.0
mp-680058,I7In1Te1,-0.46959226486111066,0.0
mp-37024,Ho10O27Ti6,-3.7775454192151154,0.0920379226744012
mp-753355,Ce5O13Y2,-3.896458854604167,0.04213565150001557
mp-27231,Li2O3Te1,-1.8281659226388882,0.0
mp-755642,Li3S4V1,-1.3238776678125,0.0
mp-18989,La1O4V1,-3.1898042312499997,0.0
mp-695829,H1O4Rb1Se1,-1.5064175504538693,0.0
mp-27220,O5Sb1Tl5,-1.2584264734469697,0.0
mp-3154,O12Sb5Sm3,-2.63022427725,0.0
mp-634113,Cd2H2O6S1,-1.634777119602273,0.0
mp-22535,Hf1O3Pb1,-2.8127176346874876,0.00888730318748614
mp-559894,O9Sb2Te2,-1.6707627450641023,0.0
mp-643439,Ba1H8Mg2Os1,-0.5227649183333334,0.0
mp-768958,Ba2Cl19Y5,-2.7048705755769236,0.08194456057692398
mp-1020012,Ge4Li2O9,-2.1746445836111112,0.0062751568333411
mp-767600,F5Li2Mn1,-2.9137430111997125,0.0
mp-775156,Li1Mn1O4Si1,-2.583767240002053,0.03279043860359617
mp-764642,Co1Li2O4Si1,-2.4833051680208325,0.0
mp-23794,F1H4N1,-1.0649457729166674,0.0
mp-761574,Co1O3Sn1,-1.74979406525,0.03558321550000017
mp-643293,H4Mg1Ni1Sr1,-0.5151395700000003,0.0
mp-673677,La2O9Th3,-4.169779341339285,0.2837644576786213
mp-1013750,F6S1Sn4,-2.1831395148295454,0.043949738863633764
mp-14437,O2Rb1Y1,-3.023273982916666,0.0
mp-23056,Br1N1Sr2,-1.5372470070833333,0.0
mp-504590,Ca2O9Pb1Si3,-3.1631292499166674,0.001725425777567106
mp-772195,Al5Dy3O12,-3.6997145949999997,0.0
mp-5104,Ca1F4Zn1,-3.380167731666667,0.004434444166694955
mp-626788,H3O5Re1,-1.641886975694445,0.0
mp-555100,Bi1Nb1O4,-2.527129167916667,0.0
mp-13820,Cd3O5Si1,-2.041303365972222,0.0
mp-554899,Al1Cs1F4,-3.636752938544061,0.0
mp-771191,Co7Li5O16,-1.4841722864880944,0.016600311845249953
mp-7639,Cu1Na2P1,-0.46383814949404734,0.0
mp-1022,K2S1,-1.2475660384375,0.0
mp-560097,Ca1O3Te1,-2.3986056112500003,0.0
mp-765601,F1Li3O11V4,-2.3786559323684195,0.07275213868415913
mp-754701,Ca1O3Ti1,-3.424662225333333,0.0
mp-733637,H8Na1O5,-1.1070137742857145,0.0
mp-23657,Cl1F1Na6O8S2,-2.2913701021144632,0.0
mp-765841,F1Li1O3V2,-2.60766174797619,0.07588438089275026
mp-695243,La2Na2O15Sr1Ti5,-3.447822303077012,0.010993658360459903
mp-19121,O4Tb1V1,-3.2991523691666678,0.0
mp-562065,O2P1,-1.943914406825396,0.01463521385714254
mp-755703,Li1O2Sb1,-1.9520072473958328,0.003384827777750843
mp-774305,Co2Li1Ni1O6,-1.2635676863333338,0.048257929666656985
mp-15431,As3Ga2Na2,-0.5307010633928583,0.0
mp-23738,H3Mg1Rb1,-0.33310071916666667,0.0
mp-768941,O6Sr3Te1,-2.579083591,0.0
mp-557448,Ba2Ca1O6U1,-3.55119948625,0.0
mp-698164,B10H6O19Rb2,-2.4603140368018006,0.0
mp-34078,Cl1H3O1,-0.9106437027500001,0.0
mp-754621,Ge2O7Sm2,-3.0009171810227273,0.0
mp-4907,Na6S7Sn2,-1.0768566819791667,0.0
mp-768303,Dy1Nb1O4,-3.4844243086111093,0.0
mp-647822,N4Pd2S9,0.08500218968055594,0.1107135168675543
mp-27662,Br1Cs1I2,-1.1539037243749988,0.0
mp-764951,F2Li6O5V2,-2.492526977583333,0.09270379300000305
mp-29692,K2S3Te1,-0.8749085730729173,0.0
mp-769015,Dy1Ga1O3,-3.0432386221500014,0.025311473933377116
mp-559864,Br1In1S4Sb2,-0.7446993920833318,0.0
mp-770499,Mn4O9P2,-2.45691747564272,0.012859463000117918
mp-558137,Al1B1O4Pb1,-2.7177430011309505,0.0
mp-559759,Al1B1Ca1O4,-3.3230583163095235,0.0
mp-556341,Br6O1S8Ti4,-1.6128320498464916,0.0
mp-720111,Al3Cl1Na4O16Si3,-2.6091204785376743,0.03897420546279254
mp-1106,Si1Sr2,-0.3397840844444448,0.0
mp-555165,O2Si1,-3.022843938541667,0.0
mp-15170,Lu2O7Sn2,-2.879457901666665,0.0
mp-1019602,Al2B2Cs2O7,-2.9772847758034917,0.0
mp-769039,Dy2O6Te1,-3.007134950648148,0.0
mp-558739,Au3Rb1S5Sb2,-0.6070541761363631,0.0
mp-13276,Li1P1Sr1,-0.9761101559920627,0.0
mp-643265,F7Re1,-2.3967554059375002,0.0
mp-585184,Mo2O13P3,-2.367342679384921,0.0
mp-674522,K6O15U4,-3.069300859039998,0.10643407666664188
mp-770748,Gd3O7Ta1,-3.6489863565757616,0.0
mp-706426,Ca2H4O9P2,-2.5205644542226895,0.008788997583551313
mp-4790,Ge1O4Th1,-3.0460079141666654,0.0
mp-690122,Mo2Nd2O7,-2.9003518888636353,0.0
mp-542844,O5V2,-2.229297029107142,0.0
mp-697814,Co1O7P2,-2.0358889092916663,0.061633546687245654
mp-7118,O4Rb4Sn1,-1.6340072749999988,0.0
mp-561130,Ga1Na3S3,-1.2378009552339893,0.0
mp-6372,Be3F12K2Zn2,-3.1753761345263154,0.008593622468242907
mp-763541,K1Mn2O4,-2.0902019118165023,0.0
mp-752453,O5Sm2Ti1,-3.7536773968229173,0.0
mp-35717,Dy1Li1Se2,-1.9508050461979138,0.0
mp-644225,H6Mg1Sr2,-0.5374449336111107,0.006360629444444044
mp-697020,Al1H2Li1O5Si1,-2.6192608629583334,0.012874683333492598
mp-15107,As1K1O5Sn1,-2.0234105073125006,0.0
mp-773887,Bi2O5Ti1,-2.3673514430729172,0.0
mp-769598,La4Mn1O8,-3.3294414829177725,0.0834709964182505
mp-35281,Cd1S4Sm2,-1.8479001989285717,0.0957441121429038
mp-777893,F3Li1V1,-3.0451949926666666,0.0187409399999968
mp-23809,B1H1O9P2Rb1Sc1,-2.6797025815634923,0.0
mp-29412,Br7Ta3,-1.3165520049499946,0.0
mp-27904,Fe1S1Sb1,-0.5935727252083337,0.0
mp-774691,Ba6Na2O17P2Ru2,-2.730627784948969,0.0
mp-756148,O7Pt2Sm2,-2.2003267563636344,0.0
mp-687091,Mo3O16Rb2U2,-2.6296354166304354,0.005489361413021838
mp-674333,Na3O4P1,-2.526116564123563,0.0
mp-756044,As1Na3O4,-1.8876677009375005,0.0
mp-767530,Ba1C1Na3O7P1,-2.541062351287578,0.030969632307225936
mp-769285,Ho3O8Re1,-3.2895665872916644,0.0
mp-766409,Bi1Li3S3,-1.1407080884821426,0.02562093928572016
mp-625596,Br1H9O4,-1.168541042410714,0.0
mp-770851,Li2Ni2O5Ti1,-2.229355215375,0.033816068642426346
mp-600071,O2Si1,-3.0243602180555564,0.0
mp-6973,Cs1Na1S1,-1.2153954158692528,0.0
mp-31016,Ca4Nb2O9,-3.332589343000001,0.0
mp-772220,Li3O19Ta7,-3.166740256767241,0.06662093258620122
mp-694958,Al7Li5Na2O72Si29,-3.1778293601689156,0.05937904239009709
mp-676410,Ag1Lu1S2,-1.5007128980729156,0.010785966249994727
mp-761897,Cu1F3Li1,-2.3246226114999993,0.008663976999969947
mp-698480,H2O10S1Sb4,-1.707592786617647,0.0
mp-541538,Cd1K2O4Si1,-2.356780274343749,0.0
mp-641191,Mo3O16Tl2U2,-2.4415162270289854,0.0029490881696246966
mp-30460,Bi1Ni1Y1,-0.762277687499998,0.0
mp-32516,Li1O11P3V2,-2.671099229397758,0.046213342647274155
mp-21727,Cu1Ge5O14Pb3,-1.8812532794565213,0.005843091612313507
mp-31120,Dy1O3Sc1,-3.874299900625,0.02599108124998182
mp-31020,As1F6I5,-1.4687505460416659,0.0
mp-580941,Ag1I1,-0.3811804524999971,0.0
mp-626449,H3O4P1,-1.8702018613541664,0.0
mp-752569,La3O6Sc1,-3.7758673516249983,0.025605584999973275
mp-541875,K3Se3Sn1,-1.2035168919330361,0.0
mp-763182,F1Li2O2V1,-2.614458176111111,0.006646839166824255
mp-542654,In3Rb1S5,-0.9348667467013877,0.0012220556944464692
mp-754614,Lu1Nb1O4,-3.4163575977777754,0.0
mp-744268,Cl3Cs1Fe1H4O2,-1.493086455721003,0.0
mp-753763,Ce5Dy2O13,-3.761993947312493,0.04233458050006931
mp-10520,Li1Nd1O4Ti1,-3.414705732023809,0.02332048285715668
mp-23177,Br1Hg1,-0.5513852762500022,0.0
mp-773965,Nb2O6Pb1,-2.733780847277779,0.01056194560183125
mp-767613,B1H1O9P2Rb1V1,-2.616054919146825,0.0
mp-621825,F32O1Pb8Y6,-3.521515066781914,0.01245475891509633
mp-755350,Ba1I5La1,-1.9353620842857144,0.026402626785713527
mp-19401,Cr1O4P1,-2.593303902440476,0.0
mp-772833,Hf1O5Y2,-3.8802652536718796,0.0006946740625020098
mp-17066,O6Te1Y2,-3.005755776944445,0.0
mp-3032,B1F4Rb1,-3.309778116111111,0.0
mp-768250,C1Li1O7P1Pr1,-2.614857453219696,0.11895947369318094
mp-667368,O2Si1,-3.2559410142708334,0.0
mp-554037,C4H5K1O15U2,-2.1227282033055563,0.05009723543777511
mp-34978,Al2Fe1O4,-2.837843042857142,0.0
mp-18385,Lu2O7Si2,-3.7054646732954537,0.0
mp-29193,Nb2O13Se4,-1.4903149100657884,0.0
mp-19459,K2Mg1O7V2,-2.5537890951666675,0.0
mp-550433,Be1O2Zn1,-2.39616355625,0.04876418249999892
mp-542967,O4S1Sn1,-1.4863232421354173,0.0
mp-3748,Al1Cu1O2,-2.3280195675,0.0
mp-504924,Cs2O5Te2,-1.7434223754326312,0.0
mp-756214,Al1O3Y1,-3.682684843499999,0.01866936360003706
mp-721564,H5Na3O6Si1,-1.8987922077270118,0.0024550439442466636
mp-735488,H18Mo2Na3O17Rb1,-1.574658613942388,0.003044363439367125
mp-706521,H3K2O5P1,-2.0641852046948044,0.021760864166677732
mp-19036,O7Tm2V2,-3.303129699090908,0.004346743409074866
mp-616327,I1In3Te3,-0.6189497321428574,0.0
mp-604229,C1H3N1O3Zn1,-1.2622959770833333,0.0
mp-705291,Cr1Li1O7P2,-2.6413789945562764,0.0
mp-17911,Ba2O3Zn1,-2.532162294166666,0.0
mp-680436,Li1Rb2Sn4,-0.291459588511903,0.0
mp-755243,Cu1Li5O2S1,-1.6474966393518524,0.054706919930573465
mp-28989,Br1Li10N3,-0.6695583634523808,0.0
mp-24216,As1H1Hg1O5Zn1,-1.4461259887500002,0.0
mp-27936,F5Na2Sb1,-2.8765473619073294,0.0
mp-29817,Ga1I9P2,-0.555882140044643,0.0
mp-580999,Cl8Ga2Ni1,-1.4213360863636362,0.0017919918181826104
mp-755056,Ca1I4Pb1,-1.3912708033333325,0.00010831875000076134
mp-683982,F4O1Ru1,-1.7898121127083328,0.02584751697917061
mp-1788,As2O5,-1.2281366617857137,0.0
mp-29402,Ga1I4K1,-1.1623891212083304,0.0
mp-558259,I1Pr3S8Si2,-1.767515702142857,0.0
mp-7569,As1F6K1,-2.74159559621875,0.0
mp-3269,F9Na1Th2,-4.219022821874998,0.006156226874962793
mp-3980,F6Li1Sb1,-2.8701325497916663,0.0
mp-7385,Be2F8K2Pb1,-3.2365525072692307,0.0031237403844632293
mp-21282,Na2O3S1,-1.847751036302082,0.042031492500050525
mp-757158,Li1O8Ta3,-3.2104874264861096,0.0
mp-721279,H3N1O3S1,-1.1785642686718738,0.01644768700244903
mp-23659,Br1Ga3Na4O12Si3,-2.667109296682908,0.0
mp-7048,Al2O3,-3.41793316225,0.0
mp-770691,Al1Fe1Li3O5,-2.2917813948749997,0.06916143449988325
mp-19226,Fe1Na1O4P1,-2.415027266769293,0.0
mp-22875,Br1Tl1,-1.026278260000005,0.0
mp-29083,Cl4Er1Na1,-2.3714511955555566,0.0
mp-27430,B1F7Sn2,-2.6666357325000005,0.0
mp-560998,O2Si1,-3.0275139001851845,0.0
mp-637112,As1F6I1S7,-1.1958084156805557,0.0
mp-560851,Cs1F4I1O1,-1.9288138921428575,0.0
mp-14002,As4Ba4Ge1,-0.9700582608333339,0.0
mp-541412,Cs1O7P2Y1,-3.1436117918194877,0.0
mp-760,Fe1Se2,-0.6697169598958315,0.0
mp-17382,O9Rb2Si3Sn1,-2.86624056625,0.0
mp-560310,F8O1P1Sb1,-2.526806029134199,0.0
mp-777471,F4Fe1Li2,-2.8652834541666663,0.013517847857180243
mp-24363,F1H10N2O4P1,-1.3266702368518513,0.013856587638459119
mp-37405,Al5Cu1Se8,-1.0285531527678573,0.019666358214284734
mp-6259,Li2O7Sr1Ta2,-3.205267554486111,0.0
mp-558852,F3Fe1,-2.629575006458334,0.0
mp-530033,B8O1,-0.6043091028240747,0.022105645925922148
mp-551250,Bi2Er1I1O4,-2.3487672662499994,0.0
mp-557482,As3Ca5F1O12,-2.830293443333332,0.0
mp-570157,Br1N1Zr1,-1.9510384029166659,0.0
mp-19254,Fe1O4S1,-1.8591163638541666,0.0
mp-721084,H7I1N2,-0.5333055775000005,0.0
mp-756655,O2Ti1,-3.2475569151388903,0.0
mp-677195,Br1N17Nd10O9Si10,-2.241575261037233,0.0
mp-2624,Al1Sb1,-0.25549792000000027,0.0
mp-35078,Ba1Mn1O3,-2.463130096836207,0.0
mp-763051,F1Li2O2V1,-2.7118905736111114,0.006646839166824255
mp-23138,Cl1O2Pb1Sb1,-1.7092093099999999,0.0
mp-643270,H5K3Zn1,-0.3200060243333335,0.0001954455555553341
mp-28085,As2F7K1,-2.6267319982250013,0.0
mp-753990,Ba1F8Y2,-4.311977909393939,0.0
mp-21794,O7Si2Sm2,-3.6232550995454544,0.0
mp-768237,Gd2Hf1O5,-3.801777930781249,0.023003687187501676
mp-29521,Bi1O2Rb1,-1.7042505206249992,0.0
mp-772439,Al1Fe1Li3O4,-2.392338312083333,0.01917534958250834
mp-760255,Cu1F6Li3,-2.6078730706666664,0.0
mp-674366,F7Si1Tl3,-2.6422057754545487,0.0060809036363668086
mp-676250,Bi2Pb1Te4,-0.5390500209523843,0.001284634466009