Material ID,Compound,Energy,Hull Distance
mp-14099,Ag1F3Zn1,-2.0018450968333332,0.0
mp-770698,Al1Fe1Li2O4,-2.4163240170833333,0.016841030938335333
mp-756550,As1O4Tm1,-2.7820503098611105,0.0
mp-540957,Cs2I6Te1,-1.0445298088888881,0.0
mp-676262,O3Ta1Tl1,-2.492734753716667,0.0
mp-510273,Cs1O2Sb1,-1.8543470611637942,0.0
mp-37605,Li1Nd1Se2,-1.9115091468229188,0.007582971562501761
mp-770968,C1Na3Ni1O7P1,-2.2280953980183464,0.0
mp-755491,N2O11Sr2Ti6,-3.182785684880951,0.025088564774547097
mp-765739,F1O1V1,-2.6394841483333344,0.0
mp-771575,Li2Mn3O8Ti1,-2.382777990628078,0.0164020411073414
mp-707395,H2Na1O4Se1,-1.4560457176744341,0.009921289453090676
mp-28566,Na1Se4Ti1,-1.0024336952777777,0.0
mp-558603,K2O9Si4,-3.0616662314666674,0.0
mp-769662,Fe2Li2O5Ti1,-2.319244486250001,0.03040202249988546
mp-706518,Cr1O4Tl1,-1.4804797736805568,0.011871510236101557
mp-568540,Ag5Cl5Hg4P8,-0.39350514545454535,0.0
mp-697096,H4Na2Pt1,-0.45214413785714264,0.0
mp-28002,Br7Mn2Rb3,-1.643546922363506,0.02363283625000105
mp-29160,Ag2O3Ti1,-1.869978371944444,0.03599572666675144
mp-28503,Al10O19Si2,-3.3387156819758053,0.061206794677418436
mp-655613,Cs2N2Tb6Te7,-1.6816479109398244,0.0
mp-27776,As1Cd2Cl2,-0.9237187224999996,0.0015406232499891813
mp-669304,Br9Cs3Tb2,-2.306620321342364,0.0
mp-759211,H22La2N6O23S6,-1.448455375847457,0.08369088647847889
mp-23567,Cl1Cu1Hg1S1,-0.6345963173437497,0.013393002359741057
mp-6478,Ge1Li1O5Ta1,-2.7534221585208325,0.0
mp-706339,B3H15Mg1O13,-1.7607765349609377,0.01573224730467504
mp-2998,Ba1O3Ti1,-3.482229675166633,0.0
mp-541668,O7P2Sb1,-2.3885729437916665,0.0
mp-540829,F5Ru1,-1.874014277916667,0.0
mp-556214,B4Ca1O7,-2.818991042083333,0.0
mp-760798,Cu1F5Li2,-2.390443603020834,0.0057182542708438255
mp-15922,Gd2O5Re1,-3.193659163125,0.0
mp-28727,Bi2La4S9,-1.8731698433750001,0.010843607500000966
mp-556605,O2Zr1,-3.7707411774999997,0.0
mp-542570,As1Se1,-0.11949234390624852,0.006943119999999844
mp-555421,Na3O7Si2Tm1,-3.0626053389721495,0.0
mp-554549,Ca1Ge1O3,-2.736338839874999,0.0
mp-560777,Cl5Hg3K3O6S2,-1.6415161700131575,0.03791402433379992
mp-10796,Hg1O4Se1,-0.9667912995572916,0.0
mp-5540,B4O7Sr1,-3.01788272454861,0.006765521435182127
mp-705680,La2Mo2O9,-2.79409719375,0.04235938846155891
mp-34376,Cd1S4Tb2,-1.8499279082142854,0.09987820749998022
mp-581114,Cs2F1O10Si4Y1,-3.310198321876596,0.0
mp-761269,Ag1F4Li2,-2.351220950833336,0.03386068142858534
mp-756495,Cu1Li3O2,-1.6500694266666667,0.0982829079166665
mp-769582,O15Sr5Ta4,-3.4805300964409724,0.0
mp-560966,Cl5K2N1O1Ru1,-1.4982975829499998,0.0
mp-4549,N2Si1Sr1,-1.4095123212500003,0.0
mp-561942,Cs3O8Ta1,-1.5837356181111133,0.006385569843478637
mp-1001015,S4Y2Zn1,-1.9289911217091824,0.012571067859650802
mp-31149,Bi1Ca3N1,-1.2181890442499992,0.0
mp-554105,Ag2Cd1Ge1S4,-0.5912128132291659,0.0
mp-694955,La3Li2Na1O18Ti6,-3.4383475225239475,0.04856306783308497
mp-559151,Ba1O7Sr1Ta2,-3.490547147537879,0.0
mp-638009,P1Pb1Rb1S4,-0.9697165042346926,0.0
mp-768735,Ba2I6Sr1,-2.016102887685185,0.013791629444444453
mp-754435,Al1Lu1O3,-3.7202306618333325,0.02109659624997704
mp-641367,Au1Cr3O8,-1.5723955458333332,0.07065996713541978
mp-16922,Ba2Sb3,-0.9623563912500004,0.0
mp-541415,H5K1O9S2,-1.4022585320955887,0.0
mp-560658,As5Bi2Na5O18,-1.918005325675288,0.0
mp-10461,Na1O6Sb1Sr3,-2.7324247623981193,0.0
mp-757669,C2Cu1Li1O5,-1.6163980645370382,0.12150362847224333
mp-697408,C2H10N2O5,-1.0396919665131583,0.02602903996706673
mp-657300,Cl5Rh1S1,-0.8673665005654764,0.0
mp-23065,Cl3Cs1Cu2,-1.0987308362500012,0.0
mp-772342,O9W2Y2,-2.877833182660257,0.025385022692306008
mp-762412,Li2Mn3O6,-2.0746029989054335,0.036202204829529384
mp-715035,O2V1,-2.4234353085416678,0.0
mp-552234,Bi1Br1O2Sr1,-2.362064575,0.0
mp-35630,Cd1Pr2Se4,-1.6894958203869044,0.0976602242217418
mp-27221,Ca2Hf7O16,-3.839626403600005,0.0018948594999937994
mp-7421,As1K1Zn1,-0.6001071804166666,0.0
mp-554479,B1Ba3O7P1,-3.2080154534424596,0.018046546459445995
mp-28950,N6O1P4,-0.7920201379166656,0.0
mp-755450,Ce2La2O7,-3.8949720432954535,0.009817909545459842
mp-560443,Ag1Hg2N1O5,-0.6843698414351849,0.0
mp-769025,K2Mg2O3,-2.2422036281428572,0.007326796824141216
mp-697670,Al1K1O8Si3,-3.2423039013269226,0.0
mp-7251,Ba2Nb1O6Y1,-3.449719932916666,0.0
mp-754663,Be2Na2O3,-2.4027466678940885,0.035383957142855645
mp-568346,Br1Hf1N1,-2.0103288845833305,0.0
mp-773140,Co3Ni1O8,-0.9243887445833323,0.07149771055555831
mp-768537,Cs3O3Tl1,-1.2149316314285719,0.0
mp-767471,Li5S1Sb1,-0.9471348621130952,0.05033987999999961
mp-770765,As1B1Mn1Na3O7,-2.19349570773099,0.018209446985471854
mp-568759,I7N2Na1Nd4,-1.7416104015394092,0.0
mp-697540,Ge1H2K3N1O3,-1.4785015495249993,0.0
mp-772625,As1B1Na2O7Sn1,-2.1377944894600085,0.07805388440799395
mp-730691,Ca1H12O17Si2U2,-2.315816162316177,0.018313281029496326
mp-28155,La1Nb5O14,-3.1674264047499996,0.05167697762498058
mp-551135,B2Ba1Cu1O5,-2.588087621759259,0.03228255546315376
mp-504539,Ca1Lu2O4,-3.791863836726191,0.038186013749986154
mp-753923,Cs3Ho1O3,-2.138395170714286,0.0
mp-623590,O7Rb1Se1V2,-2.1255009554403403,0.0
mp-754596,Ga1O2Rb1,-1.9148771665624995,0.0
mp-5836,O4Si1Th1,-3.6605411925000007,0.0
mp-567975,Al1Cl5N1P1,-1.4548433355803572,0.013067898709016479
mp-763342,F1Fe1O1,-2.0403497665277777,0.040905479444460845
mp-639506,O2Si1,-3.2547733333333344,0.0
mp-28485,I1O7Sb5,-1.6310534512499992,0.014819677019230627
mp-763447,Co5Li5O12Ti2,-2.1050024343055553,0.04408065916432147
mp-28587,Ba1H8O5,-1.5670988939285817,0.0
mp-625832,Ba1H2O3,-1.0363440488636366,0.27852056104164014
mp-39140,Al3H1Na4O13Si3,-2.9548607889278014,0.0
mp-669358,Cd1I2,-0.8711004896969696,0.0
mp-560527,O2Si1,-3.0267893533333337,0.0
mp-769253,Dy2O2Se1,-3.45207309596875,0.0
mp-579552,C1La2O5,-3.2734544915625015,0.0
mp-766374,Bi1Li1O4Si1,-2.4900447738095233,0.023689681258661364
mp-756238,Ca1I6Sr2,-1.9521305103703708,0.02224016625499677
mp-14152,Nb1O4Sm1,-3.3634533566666676,0.0
mp-13097,As1Na1Zn1,-0.5384161008333331,0.0
mp-569853,Br11Cs1Nb4,-1.453275470183189,0.0
mp-759704,Cu2Li2O13P4,-2.2997756663208624,0.05514533130998734
mp-677703,Cl1N7Nd4O3Si4,-2.1865532340131573,0.005266937193083939
mp-776589,Li9O29P8Sb3,-2.5384441858090376,0.05556840022101443
mp-776260,N2O1Zr2,-2.333857958750001,0.0
mp-12620,F1Nd1Se1,-3.230210549687501,0.0
mp-694873,La1Ni1O6Ru1Sr1,-2.425325439999999,0.0
mp-559994,Br1La6N3S4,-2.2246234907142863,0.0
mp-559373,Ge4O9Pb1,-2.0230620477678576,0.0062534184821433515
mp-762240,K2Li2O4Ti1,-2.538111329944444,0.005065198240370389
mp-7310,F6Pb1Zr1,-3.5431965275,0.0
mp-570192,Cs1I14Mn1Zr6,-1.2448400741300938,0.0
mp-567966,C1Cl15Rb1Zr6,-2.2047807231521745,0.0
mp-762011,Co1Cr1Li1O4,-1.8797917483333322,0.03818677142870262
mp-558170,O4P1Rb3,-2.4973438888541666,0.0
mp-540133,Co1Li1O7P2,-2.3050405591017307,0.0
mp-634430,O2V1,-2.103406085000001,0.0
mp-2763,Nd2O3,-3.6640550959999985,0.0
mp-677391,O12Tm4Zr3,-3.940322987631577,0.022500509975316912
mp-558326,O2Si1,-3.256944958981482,0.0
mp-767276,Fe5Li5O24Si7,-2.55931023308943,0.0775010326219488
mp-568670,Cl6Cs2Na1Tb1,-2.4983005947356327,0.0
mp-555313,Bi1O3Sc1,-2.7821685862499996,0.021432688999863458
mp-21276,Pb1S1,-0.6446651964062511,0.0
mp-28065,Cl1N1Th1,-2.4361165766666666,0.0
mp-1716,O3Rh2,-1.07218461975,0.025009798999999156
mp-757365,La1O9Ta3,-3.315845859769229,0.0
mp-675896,Ca2F7Nd1,-4.154865591666666,0.13437609433332653
mp-24066,Cl1H1O1Sr1,-2.4601992026041666,0.0
mp-19282,O6Sr2W1Zn1,-2.6612661785,0.000250280899816957
mp-30197,Cl6Er1K3,-2.4983506788999996,0.0
mp-567907,N5P3,-0.5233771874999995,0.0
mp-11982,Ca1O6Sr2Te1,-2.8011588581666658,0.0
mp-673244,Bi2O3,-1.55120521125,0.0
mp-4009,Ba1Pd1S2,-1.3901173289062498,0.0
mp-555769,Bi1O3Sc1,-2.7780749079999993,0.021432688999863458
mp-770689,Al2Li2Mn1O6,-2.677314668145245,0.08095984515151694
mp-560208,As2K3Nb1O9,-2.2652607996833343,0.0
mp-770954,Cr3Li4Nb2O16V3,-2.6051115886904768,0.0033777962278053663
mp-7560,B1Lu1O3,-3.5700622790833334,0.0
mp-756599,La2O4Zn1,-3.1110786416071403,0.0321153842856537
mp-15492,Dy1O19Ta7,-3.4212309904166656,0.00367581259259103
mp-29157,P2Pt1Si3,-0.4557231951587326,0.0
mp-27304,Cl6K2Mn1,-1.6414557374425272,0.0
mp-36538,La2Pb1S4,-1.9862897403571433,0.01992548649997694
mp-555904,Ge1Na1O4Sm1,-2.833338469507389,0.0
mp-569175,Cl4Zr1,-2.006411403,0.0
mp-772511,Co3Li4O16Sn5,-1.9406265652976191,0.02753171107142219
mp-608398,Cl6N1Nb1S1,-1.1733348263888894,0.09100985658748723
mp-769032,Li3Nb1S4,-1.3968947109374996,0.0009539628124601851
mp-17966,In1K1O7P2,-2.6089158141547615,0.0
mp-770500,B4Mn2Na6O16S1,-2.340188129424295,0.021370583614542766
mp-776751,Co3Li4O16V5,-2.171103935654762,0.05895652407747625
mp-6622,Ba1Nd2O10Ti3,-3.6502024551562506,0.001228048437600382
mp-764957,Co1Li2O4Si1,-2.493515719895833,0.0
mp-29345,Ga1I3Li1,-1.0371590336666663,0.0
mp-542662,Cl7Ga2Te2,-1.2914224955303029,0.0
mp-5373,O7Ti2Y2,-3.663614062575758,0.008806482045462164
mp-24308,Al1C3Cl2H9O1Si1,-0.8082785765441175,0.0
mp-696019,H4Na3O7P2,-1.9545734594327278,0.04998573606618972
mp-2632,F3Tl1,-1.9760060568750006,0.0
mp-774350,F11Mn6O1,-2.851782882365901,0.014400235486140013
mp-754329,Cd1O3Sn1,-1.6513618260000016,0.0
mp-14092,Ag1Al1Te2,-0.43926148875000237,0.0
mp-558608,Nb2O6Pb1,-2.7337490124074093,0.01056194560183125
mp-541600,La1O7Rb1Ta2,-3.3793074608787865,0.0218819688635418
mp-541740,O5P1Ta1,-2.8405843861156472,0.0
mp-752728,O7Rb2S2,-2.113133258863641,0.0
mp-755792,Ga1Lu1O3,-3.162808307833333,0.0
mp-32787,Ho2S3,-2.3356772436250006,0.0
mp-32684,Br1H1,-0.3047000443750001,0.0
mp-18271,Na5O13P1Si2Ti2,-2.9416390298133073,0.0
mp-697692,Cr1Li1O4P1,-2.369263083125,0.0052990134411981926
mp-559441,Li1O5P1Ti1,-3.03014624766369,0.0
mp-705390,Fe4Li3O32P9,-2.319650667120534,0.08217428168405168
mp-571550,Sb2Se2Te1,-0.46154598827083293,0.0008101419054320936
mp-766570,Ce3O14Th4,-4.169763791666663,0.006343059999949895
mp-759870,Bi1F1O1,-2.188054723958333,0.0
mp-676711,C1F5I1,-1.5290588971428574,0.3761097171714263
mp-18960,Er1O4V1,-3.3007855247222224,0.0
mp-765394,Li1Ni1O4P1,-2.304573333452381,0.0
mp-754871,As1Bi1C1Na3O7,-1.8546819018003973,0.096623128188896
mp-542522,Bi14Br16Pd1,-0.8678056741935483,0.030484944462365146
mp-644295,Ca1Ge1O5Zr1,-3.13927332546875,0.010813637293541678
mp-28967,Ba1Pd1S2,-0.9765209258928584,0.0
mp-504729,Cs2F6Pd1,-2.3287748016666665,0.0
mp-759686,Al1Be1H1O5Si1,-2.9502886773611112,0.00726983345084204
mp-769009,Ba2Cl7Y1,-2.7845655415,0.009044495750002568
mp-696701,Cl1H1O1Pb1,-1.4649225790624998,0.0
mp-12623,Ba1F4Pd1,-2.853377258333328,0.0
mp-542863,Ca7F1Nb1O17Si4,-3.4776119464999993,0.0
mp-556585,F2Mn1,-2.968549388477012,0.0
mp-28760,K1Rb1S1,-1.2273932717708338,0.008094586666669143
mp-14439,K5O4Tl1,-1.391458565208333,0.0
mp-721707,C3H6N4O3,-0.8052378259374997,0.007534155416671906
mp-37906,Li1Mg1N1,-0.8117910368055554,0.0
mp-5077,Li2Na1Sb1,-0.7055747683333333,0.0
mp-720583,B3H2Na3O7,-2.2002152401666657,0.0
mp-684743,C4Ga1Ge5H6N1O12,-1.104025072931034,0.331672613879738
mp-542314,Cu1Nd1O1S1,-2.197959541484371,0.011043987655803278
mp-600049,O2Si1,-3.009659936875,0.0
mp-644097,Al1Ba1H5,-0.45069871839285724,0.0
mp-622624,As2Cr2O9Rb2,-2.0967052969999997,0.0
mp-557417,As2Cl3F5O1,-1.8921711354545456,0.0
mp-23614,Bi2Nb2O9Sr1,-2.6884635750297625,0.0
mp-28657,Cl4Mg1Na2,-2.050114596428572,0.01307805619065253
mp-2095,Rb2Te3,-0.9586328205000001,0.0
mp-7193,Lu2O7Si2,-3.5958555643939394,0.0
mp-753947,H1Lu1O2,-2.950810801354166,0.008872934479207562
mp-10552,B1Rb1Se3,-0.8327932337395836,0.0019054157500002944
mp-12902,Ag1Er1Te2,-1.1080936124999976,0.0
mp-4360,Cd1F3Na1,-2.662374417775862,0.0
mp-617632,Ag1Ge1La3S7,-1.8105711094618056,0.0
mp-771948,Ba3Cl9La1,-2.9183720242307696,0.018954979423079103
mp-556549,Bi2O3,-1.3380751909999957,0.0
mp-23586,Br3Cl1Hg6S4,-0.6513915485714311,0.0013021966071433053
mp-24165,H2Li2O5Se1,-1.6715602327760415,0.009596868083339061
mp-7739,Ba2F6Zn1,-3.6238126638888892,0.026791781111172322
mp-19410,Cr2O4Zn1,-2.273736277142857,0.0
mp-28353,Na1Te1,-0.9152298526508625,0.008034606541666545
mp-770873,Ho2O6W1,-3.2831545144444445,0.0
mp-588,F3Ga1,-2.860848854375,0.0
mp-16433,Ca2Ga2O5,-2.769095101527778,0.03333695425931538
mp-752415,F1Nb1O2,-3.1072972375,0.0
mp-699482,C1H20Na2O13,-1.400326682343152,0.015040766331019226
mp-559940,Al1Cl6N1S2,-1.0556021615000006,0.011300754345312391
mp-17777,As3F1O12Sr5,-2.8540359995634916,0.0
mp-556906,Be2F8Li1Na3,-3.2828170580336615,0.00766444855437801
mp-22895,Cu1I1,-0.36165910999999973,0.0
mp-29492,I2O11S2,-1.2401250096666663,0.0
mp-14116,Cu1O2Rh1,-0.8207293849999999,0.0
mp-558340,As2Cl1Nd5O10,-3.22567236875,0.0
mp-540995,F18Nb3O1Rb5,-3.368636324675927,0.0
mp-556246,Cl1La3S8Si2,-1.9358499732142873,0.0
mp-6065,Ga1O6Sb1Sr2,-2.614649779249999,0.026288994875517703
mp-675978,Bi3F11K2,-2.7768323408437494,0.1068552050003686
mp-752525,Ag1F2Li1,-2.0643534991666677,0.0
mp-23260,Ba1I2,-2.0844688891666663,0.0
mp-761337,Cr1O3Sr1,-2.588015111583333,0.057477218458299006
mp-761401,Cr1Li1O4P1,-2.488232361139455,0.0052990134411981926
mp-18365,Cu1Rb1Se4,-0.7226372223958334,0.0
mp-556500,Cl1F4N1O1,-0.9306664983928569,0.0
mp-21575,In1Pr3Se6,-1.8366354971874983,0.0
mp-755020,Ca2I6Sr1,-1.86349631962963,0.032362992458701986
mp-675678,Ag2Nd4Se7,-1.647965613441507,0.0867814054326918
mp-41734,Al6Na8O28S1Si6,-3.0195070048069135,0.0
mp-777053,Fe2Li4Mn3O16Sn3,-2.0131270215045154,0.04961748625091035
mp-622558,Dy1Fe1Ge2O7,-2.4772012317424226,0.0
mp-558607,B1K3O13Sb4,-2.122866863662699,0.0
mp-772624,Al2C1O1,-1.4234212265625006,0.07599321624996813
mp-720570,H11Na2O8P1,-1.538239793234158,0.011061975568105903
mp-777580,O12V5,-2.249075768235295,0.011396400882350624
mp-754358,O4Se1Zn1,-1.0406949015104157,0.0
mp-772019,Ba5Cl16La2,-2.8611980421739136,0.07181546217391352
mp-29398,Cs2Hf1I6,-1.5447012243678115,0.0
mp-19304,F3K2Mn1O4S1,-2.5163843979141856,0.0
mp-18633,K8Sb4Sn1,-0.4856883402307689,0.0
mp-680167,Cl13Li1Mo6,-1.4122053541666666,0.01126750099999647
mp-644302,H1Na1O4Se1,-1.4574178244850675,0.0
mp-757595,H3N1O3S1,-1.1178903232031239,0.01644768700244903
mp-7176,La1Rb1Se2,-2.041494886796875,0.0
mp-770612,Cr1H8Li4O7S1,-1.6075227694146834,0.03983927362141974
mp-14636,Ag1Nb1Rb2S4,-1.2655720555208338,0.0
mp-530695,F15Gd1Zr3,-4.1021375478947375,0.0
mp-571397,C4Cl21Cs3Tb10,-2.271179985231398,0.0
mp-19134,Ca1Cr1O7P2,-2.8687716276623374,0.0
mp-773505,Al2Cr1O5,-2.8735383009374997,0.03537427624955747
mp-559093,Bi1P2S7Tl2,-0.6781860864756943,0.0
mp-754041,Gd2Hf1O5,-3.8145281654687473,0.023003687187501676
mp-756389,Lu2O6Te1,-3.0217333399074073,0.0
mp-685318,As1Bi15O25,-1.6770488867682927,0.0
mp-30373,Au1Rb1,-0.3096011506249994,0.0
mp-763099,F1Li2O2V1,-2.6114392294444446,0.006646839166824255
mp-553975,In1K3Na2O4,-1.6364020594603446,0.0
mp-12012,Ge1K1Pr1Se4,-1.407838550470237,0.0
mp-777529,F6Li2V1,-3.146317646111111,0.0
mp-560314,H10In2O17S3,-1.6279939481510413,0.0
mp-698666,Li2Mo1O3,-2.1053014606944447,0.0
mp-775831,Mn2O6Ti1,-2.286968692410601,0.08448727083305209
mp-554119,As1K1S5Sn1,-0.8060996770156255,0.0
mp-753532,F2Nb2O3,-3.0304489039285705,0.03186130529741149
mp-715517,O2V1,-2.4217529481250004,0.0
mp-18779,Cr1Na2O4,-1.9806898732512306,0.0
mp-561407,Ga1Rb1S2,-1.2308457004687483,0.0
mp-770704,Al1Fe1Li2O4,-2.485863139895833,0.016841030938335333
mp-542374,K1Sn1,-0.2809978386249985,0.0
mp-542737,O4Ti1Zn2,-2.4943760219047606,0.029660945833288314
mp-754199,Ba1I4Sr1,-1.9981865916666666,0.021835488333333746
mp-675879,Ag3I1S1,-0.26171120149999894,0.054318345000000434
mp-19393,Mn2Nd1O5,-2.6072832379202584,0.0
mp-37449,Ag1Nd5S8,-2.112610044017854,0.02088833389054707
mp-504662,Cl1O1Sb1,-1.2742198844444441,0.0
mp-722310,Er1H1K1O9Se2,-1.7682736061205355,0.08874345093711662
mp-28626,La1O1S1,-2.928881306354166,0.0
mp-559934,Li1O4P1Zn1,-2.5471055752380947,0.0
mp-555050,Ba1Nb2O6,-3.2029332397222223,0.0
mp-551905,O4Os1,-1.5287480270000002,0.0
mp-769153,F3Li2O4S1Sb1,-2.374162918617424,0.07451230795927734
mp-624769,O8P2W1,-2.4058504462987003,0.0
mp-558309,F14K4Sb2Sn1,-2.9390182713809527,0.0
mp-10409,Ba4Cd3Nd2Se10,-1.7872914101809205,0.002421934605294122
mp-7652,Na5O4Tl1,-1.372650890749999,0.0
mp-772668,C1Li3Mn1O7Si1,-2.4311881312831556,0.051781143861058115
mp-555236,O13Te5Tm2,-2.2026220505416676,0.0
mp-755794,Lu1O3Rb3,-2.181193148630951,0.0
mp-777461,Cr2Li4O16Sn3V3,-2.3096046877976186,0.0456030244221444
mp-625145,Cl1H7O3,-1.174923487386363,0.0
mp-558294,Li3O4Ta1,-2.8512273504166665,0.0
mp-18782,Fe1Li1O2,-1.9253509814583332,0.0
mp-3316,Ba1Ce1O3,-3.5901894972499995,0.0
mp-756135,Nb1O7Tb3,-3.7144238743181806,0.013362646022714713
mp-560786,Nd10S19,-2.083171387359912,0.0
mp-757,As1Li3,-0.7118785475,0.0
mp-5440,Al1O4P1,-3.109686570694445,0.0
mp-696941,H2K2O5Ru1,-1.5949972154500003,0.0
mp-540391,Co1O4P1,-2.0818345966071448,0.0
mp-653930,As2Cl5Cu1O9Pb8,-1.556579051299999,0.0014006359632162458
mp-216,O3Sc2,-3.969496017,0.0
mp-695984,Ba1H2O9Re2,-2.256900997232143,0.0
mp-19120,Cr1Mg1O4,-2.2736485141666662,0.0
mp-504948,Ge1Li1O4Sc1,-2.876736266904761,0.007733105118982715
mp-557266,Hg1O2,0.11396266375000152,0.3771495304166666
mp-18451,Er3F10K1,-4.306435540214286,0.0
mp-545847,Bi2Br1Lu1O4,-2.451895345625001,0.0
mp-29095,H4O5S1,-1.4819498313125004,0.0
mp-776041,O5V2,-2.255756168392857,0.0
mp-17660,Cu1Pr1Se3Sr1,-1.7693413326996528,0.0
mp-17756,Ag2Rb1S4Sb1,-0.4837470636458316,0.0
mp-616204,Cl7Ga3,-1.1498883632499997,0.0089800217499997
mp-667342,Bi12O20Pb1,-1.6101896309090882,0.017612016818183057
mp-760515,Ba3O7Sr4,-2.9303093234226187,0.03837839142856479
mp-5033,F6Si1Tl2,-2.8378875522222224,0.0
mp-755413,Na2O1,-1.3156351866666671,0.0
mp-12814,Ba3N1Sb1,-0.9259695100000002,0.0
mp-735519,Co1Ho1K1O7Si2,-2.9264666408124995,0.06371010387837887
mp-21724,O4Pb1Si1Zn1,-2.378685745892856,0.0
mp-757070,Ba1Ca1I4,-1.9157462783333337,0.027401498749999753
mp-771515,Li6O16V3W3,-2.3212564064285712,0.06526951303572812
mp-766923,Li1O4Si1V1,-2.831779139047619,0.01105624547264737
mp-550553,Bi1Cd1Cl1O2,-1.6060954419999995,0.0
mp-676813,Ag4I5Rb1,-0.6941084671666659,0.0347979946250014
mp-15317,F6Ho1Na1Rb2,-3.5982486506551723,0.0
mp-23764,H4Mg3O9Si2,-2.583594266527778,0.0006351373040038607
mp-1019532,Al4Ba1O7,-3.421584802916666,0.000550607266688985
mp-23630,Bi4Cl1Nb1O8,-1.781045583392857,0.0
mp-647489,Cd1I2,-0.8711584299999999,0.0
mp-15349,Ge1Li2O3,-2.3227571129861118,0.0
mp-768827,Ba1I4Sr1,-1.9454501822222225,0.021835488333333746
mp-754044,Ho2O5Ti1,-3.799991214010417,0.0
mp-1020621,B3Be2O7Rb1,-2.891486648749999,0.014299828945631532
mp-662599,Ag3As1Se3,-0.30838878993303626,0.0
mp-4699,Na1O3Ta1,-2.9128488479666657,0.0
mp-14037,F6Na1Rh1Tl2,-2.2162510058218388,0.0
mp-561533,F1O1Sb1,-2.2017174816666674,0.0
mp-770744,Fe3Li4Nb2O16Sn3,-2.2673708692261902,0.019735075892714043
mp-560326,B3Ba5C1N1O9,-2.8138506777631593,0.023505678758418094
mp-754517,Ca2I6Sr1,-1.9192516885185187,0.032362992458701986
mp-773178,C1Cr1Na2O7S1,-2.055880406271551,0.05134829830732782
mp-572634,Ag1Al2Cl5O1,-2.00668492087963,0.0
mp-20790,In1P1S4,-0.4839638782043636,0.0
mp-29396,Cu2O2Pb1,-0.8087120260000006,0.0
mp-19395,Mn1O2,-2.0267167031609197,0.0
mp-767723,F9Li1V2,-3.0166771296527783,0.04212709249998466
mp-582146,Cl11Cs1Nb4,-1.5570381935937494,0.0
mp-17924,O7P2Pb1Zn1,-2.436181512765151,0.0
mp-28996,Ag4Bi2O5,-0.917066939810606,0.021977265772727798
mp-560152,O2Si1,-2.9478396882638904,0.0
mp-777896,Li2Ni1O8V3,-2.2876180840476183,0.03854670386878491
mp-27311,C1La1O1,-2.1528918370833345,0.0538027823612639
mp-2920,Al1La1O3,-3.7229567422499996,0.0
mp-22023,O6Pb3S1,-1.7570336560624995,0.004375956749999688
mp-553956,O8P2Pb3,-2.06276806122711,0.0
mp-34489,In1Li1Se2,-0.9915607332552083,0.0
mp-628643,As1Cu1Pb1S3,-0.5571858532291666,0.0
mp-776610,Ba6I15Y1,-1.9357564439393935,0.05184929500000024
mp-764057,F1O2V1,-2.410851533958333,0.005301518750036482
mp-554583,Dy1O14P5,-2.5828245217440466,0.0
mp-759405,Bi3F5O2,-2.260888642499998,0.005191272150029036
mp-772155,As1Bi1C1Li2O7,-1.9503066078472215,0.05791449729166054
mp-770745,Cr2Li2O7,-1.8213866892424255,0.011075124886345251
mp-756510,K4O4Ti1,-2.3757832791481466,0.0
mp-554472,Cl1F1N1P1,-1.505316750208334,0.00966403058336951
mp-5784,Ge1Na2O3,-2.1308300842097694,0.0
mp-31096,Al1H6Li3,-0.3555179397499998,0.0