Material ID,Compound,Energy,Hull Distance
mp-764721,F3Li1O1V1,-2.958389664722223,0.006431431706131363
mp-683956,F6N1S1Sb1,-1.9372344287500003,0.10288856441148456
mp-559091,O2Si1,-3.2636546983333328,0.0
mp-18051,La2O5Ti1,-3.7109963080208317,0.0
mp-697671,Ba6H26Mg7,-0.4689650139102559,0.0
mp-556291,Ba3S7Sn2,-1.487087171432293,0.0
mp-28146,Ga5Li1O8,-2.1675391581547623,0.0
mp-555818,Cu2Pb1S4Si1,-0.7169640698958334,0.009508130103027312
mp-554501,Ba5Cl1O15Os3,-2.3894502069270835,0.0
mp-28267,Al2Na7Sb5,-0.5148967314285723,0.0
mp-29107,Hg3Rb2Te4,-0.6071009300000014,0.0
mp-733613,Au1Br1H6N2,-0.4245172855000021,0.030614258920666427
mp-7631,C1Si1,-0.20357339458333357,0.0
mp-765521,F3Li1O1V1,-2.9463871920138893,0.006431431706131363
mp-556210,Bi2C1O5,-1.7977034079687506,0.0
mp-754134,Hf1O4Zr1,-3.8122317054166692,0.03948613124996925
mp-772516,Co1Li1O4P1,-2.331165044880952,0.0
mp-775161,Li2O8Ti3V1,-3.1086306695833335,0.0
mp-29922,O10P1Sb5,-1.6787608378422654,0.007204394843760564
mp-766352,Ba1Ca2I6,-1.9329300813888888,0.029028926944444047
mp-705056,Li1O7P2V1,-2.687164950113636,0.0
mp-530728,Nb3O24Sc11,-3.7140081444736843,0.015892554078938678
mp-4929,B1F4K1,-3.2096548785416665,0.0
mp-35432,Cr2Fe1O4,-1.9555440928571426,0.0
mp-556423,Na2O5Si2,-2.9034756593726048,0.0
mp-32899,Li2S1,-1.4503635664425492,0.0
mp-4165,N1O1Ta1,-2.268171989583333,0.0
mp-557340,Ge3O11Pb5,-1.8397822556578936,0.0
mp-14323,Ba3Ho4O9,-3.583427613046875,0.006911033437495995
mp-558267,B3H1Li1Na1O8Si1,-2.7197733831590036,0.0
mp-1569,Be2C1,-0.2313037858333331,0.0
mp-776768,Fe3Li4O16V5,-2.240926568690476,0.04556526653276955
mp-755595,Er2O5Ti1,-3.723317501041649,0.0
mp-775153,F3Fe1Li3O1,-2.3820902787499993,0.0879801899998629
mp-684747,Bi2O3,-1.6215592846874998,0.0
mp-625630,H1O3Te1,-1.355299510083333,0.0
mp-558062,K6O1S6Ti2,-1.7652280670111096,0.0
mp-571084,Br2Mn1,-1.2177455434770117,0.0
mp-755363,Ba3O1Si1,-1.3170471667500003,0.0
mp-28167,Br15Co1Th6,-2.0022587547727273,0.0
mp-542041,C1H7N2O5P1,-1.3138660962239586,0.02344386872385784
mp-28670,Ba2Bi2O5,-2.0874717161111107,0.0
mp-4589,O4P1Pr1,-3.291588736190475,0.0
mp-754624,Al2O3,-3.2822160010000005,0.0
mp-11008,Ba1P1Se3,-1.1809251360327409,0.0
mp-740718,Al1Cl3H6N2,-1.0818934838541672,0.0
mp-12337,La2Na1O6Os1,-2.8144170554051717,0.0
mp-28475,H2O4Pb3,-1.4058849866666658,0.0025521647569490824
mp-560085,Bi24Cl10O31,-1.6957913338076913,0.0
mp-19219,Li3O4V1,-2.503381393125,0.0
mp-707195,H1K1O3Si1,-2.5248990763333334,0.0
mp-583454,Bi2Nb2O9Pb1,-2.378127085267857,0.001239405369925046
mp-568082,Cu1La3Se7Si1,-1.7368711884505217,0.0
mp-568365,Br3Li6N1,-1.3065755936249999,0.009862210124999039
mp-6495,Ba1Er2O5Zn1,-3.283742190694445,0.02192747171306111
mp-753163,Ho1I1O1,-3.0448995062499993,0.0
mp-770610,Al1Co1Li2O4,-2.3347247302083343,0.061861894062596345
mp-752435,Dy1O3Tm1,-3.9639115770833326,0.08818967612511841
mp-19332,Ba1Gd2Ni1O5,-3.0700564326388897,0.00557818055501929
mp-774941,Li1Ni1O2,-1.213934436011905,0.005944195750003933
mp-28538,H3I1Si1,-0.16329180675000005,0.0
mp-10322,Ba1Hf1N2,-1.5211241887500009,0.0
mp-438,Nd2S3,-2.361125145375,0.0
mp-19276,Ba1Mo1O4,-2.76577926,0.0
mp-30231,Cl4Ga1Rb1,-1.6661115477083328,0.0
mp-28875,Cl1Hg2P3,-0.24673058523809743,0.0045828680952378536
mp-755738,O1Rb2,-1.053156461666667,0.0
mp-754283,H1Ho1O2,-2.8890374103124987,0.0
mp-23635,Cl3Re6Se8Tl1,-0.8738221506712962,0.0
mp-722527,Al1H11O10S1,-1.6297526545108685,0.0
mp-505551,H2In1O5P1,-2.076937066342593,0.0005820387499772847
mp-19400,Ni1O6Sr2W1,-2.584492691,0.0
mp-774249,Cr2Li3Mn1O6,-2.300955056910919,0.016988613333314362
mp-554146,In4K14O13,-1.6614373280887103,0.0
mp-32850,Se3Tm2,-2.085519594187494,0.0
mp-627601,Ag1S2Sb1,-0.34544787072916616,0.0
mp-559025,Ag1Ba1Er1S3,-1.855247375694443,0.002001852557937056
mp-775448,Li2Ni1O8Ti3,-2.8540511936904767,0.0
mp-14550,Cd1O3Ti1,-2.4983701903333326,0.0
mp-30250,Ag1O2Y1,-2.5140091162500013,0.0
mp-768093,F3O4S1V1,-2.1624001269444446,0.06565693844626234
mp-29097,Br4Hg3Te1,-0.7833739675520832,0.0
mp-27811,Li2O5Te2,-1.5941821467592598,0.0
mp-1013911,Co1Na2O7P2,-2.4580752353786948,0.0
mp-634676,H1K1S1,-0.9047805601041669,0.0
mp-5431,Ba1O3Te1,-2.357820810583333,0.0
mp-570079,Al5C3N1,-0.3753646113888883,0.043991491666665966
mp-554859,Au1Ge1K1S3,-0.8636064393541668,0.0
mp-3081,Al2Be1O4,-3.3504595582142804,0.0
mp-756323,As1Cu1Li2O4,-1.7863960545833333,0.09521290270847227
mp-675654,Bi6Cd2O11,-1.4868043385526313,0.10598661539473565
mp-770694,Cr2Li6O7,-2.1653302191666675,0.04346370633333265
mp-767576,F1Li6Mn1O4,-2.1929473464942526,0.08323459999998839
mp-674521,Dy2O5Ti1,-3.652491196333318,0.0
mp-606510,Cs1I6Ta1,-1.0624209234913797,0.0
mp-1266,Na2Se1,-1.2192470351490658,0.0
mp-18942,O7P2V1,-2.5869656477916663,0.0
mp-541827,Ba2F18Zn7,-2.9323202266666675,0.0
mp-38916,F17Pb4Y3,-3.5339068280208323,0.0
mp-770152,Cr3Li4Mn3O16Ti2,-2.4908913029926114,0.036602861589333964
mp-1019896,La5N1O2S4,-2.8271669833333335,0.005004032269834369
mp-770491,Al1Li3Ni1O4,-2.2483859202777774,0.08274785749366842
mp-776479,Ba1I5Y1,-1.8149907201785713,0.06748257089285735
mp-634418,Ca1H1Na1O4Si1,-2.7833495939439645,0.0
mp-27758,Al1F5Tl2,-2.9746748023958336,0.0
mp-558920,Na1Nb1O3,-2.8318208293103444,0.0
mp-1427,Lu2O3,-4.124841720499999,0.0
mp-14743,Ba3N4W1,-1.0850446651562535,0.0
mp-18157,O7P2Si1,-2.5495971880952384,0.0
mp-28328,I3Rb1,-1.1120975306249998,0.0
mp-767076,O3P1Sn1,-2.3729023035317445,0.3098804222143009
mp-765701,Fe1Li4O8V3,-2.328932147083334,0.016760997656296794
mp-12932,O4Ta1Tb1,-3.591141694555558,0.0
mp-22945,Cl1Rh1Te1,-0.6520302558333336,0.0
mp-769484,C1Mn1Na1O7P1,-2.173609907187827,0.0
mp-28380,O3Rb3Tl1,-1.3748237188690473,0.0
mp-776452,Ca2N2O11Ti6,-3.164424670297619,0.05897123702686848
mp-675846,Ca5F14Th1,-4.16043179325,0.1327334929166753
mp-11327,Rb2Se1,-1.2509198105208341,0.0
mp-12454,Cu1Er1S2,-1.5879249959895851,0.0
mp-625159,Cl1H3O5,-0.7644664606944447,0.0
mp-27421,Bi1F6Rb1,-2.3549155948437495,0.0
mp-764837,F4Li2O1V1,-2.9643211791145836,0.00147067190477701
mp-554669,Ba3Cd1O9Ta2,-3.171408068583334,0.0
mp-686585,Ag5Al11K6O48Si13,-2.8380090364016066,0.1707947236722791
mp-646878,In4S4Sn1,-0.6422758897222233,0.0
mp-19003,Mg1O5V2,-2.6390861254687508,0.02617273278677157
mp-1020162,Mg3Na4O15P4,-2.8468824509919317,0.0
mp-558374,O2Si1,-3.006062940833333,0.0
mp-777945,Mn4O10Ti1,-2.0642534540038318,0.08145192950026162
mp-561543,Be1F2,-3.5526576738888895,0.0
mp-560082,Ge2Ho2O7,-3.0631588736363686,0.0
mp-549728,Dy1O1P1Zn1,-2.0528351397023794,0.0
mp-23556,Cl7Mn2Rb3,-1.919061816684625,0.0016422429166598935
mp-773120,Cr1Mn3O8,-1.8200506682327589,0.04330123618508056
mp-568557,N2Rb1Ta1,-1.0876173012500008,0.0
mp-37614,Al2Ni1O4,-2.800282797857143,0.0
mp-755779,Ca1I5La1,-1.8218082042857142,0.02414156678571417
mp-505448,Cu1Hf1Na1Se3,-1.2363387507812504,0.0
mp-28327,Br3Ga1Li1,-1.315367099333335,0.0
mp-18313,O3Si1Sr1,-3.2649277446666685,0.0
mp-531811,Cd1Ho2S4,-1.8952601835000005,0.0
mp-769344,Ba4O9Ta2,-3.3154190651444444,0.0
mp-555763,S1Zn1,-0.9606418180729163,0.0
mp-1020706,O10Si3Sr1Y2,-3.5840867606250004,0.003560334739578508
mp-556339,As1Hg3O4,-0.8084722043750006,0.0
mp-753156,La2O7Th2,-4.086918908295454,0.26264581318176156
mp-776165,Ag1Au1O3,-0.3596835535833328,0.058250081958332214
mp-19086,Ba1Co1O2,-1.9533641987499994,0.0
mp-770474,La4O12Ti3,-3.720900196052631,0.037048696183607364
mp-17447,O24P6S1Sr10,-3.149902030626089,0.0
mp-6995,Al12O19Sr1,-3.4387765197786457,0.0023392550000700396
mp-573812,As11Cs3,-0.3810943042857125,0.0
mp-505799,O8P2Pb3,-2.3360974839743585,0.0
mp-14827,Li7N4Nb1,-0.8732279852777781,0.0
mp-30129,Li4N3Ta1,-1.0927913794062505,0.0
mp-4575,Ge1Mg1O3,-2.370517666249998,0.0
mp-705331,Li1Ni1O7P2,-2.2281617038744574,0.04040531570607054
mp-571286,C1Si1,-0.2034928079166668,0.0
mp-17765,O6Ta2Zn1,-2.8018292769074074,0.0029506193518630632
mp-559005,As1H4Na1O5,-1.551077719443574,0.003546275795529978
mp-542233,As11Rb3,-0.26754136500000314,0.0
mp-19434,Ni1O4Pr2,-2.948697996190475,0.05776918678628969
mp-23090,I1La3S8Si2,-1.8621641482142859,0.0
mp-562490,O2Si1,-3.2582366258333333,0.0
mp-16609,Os2Si3,-0.4314975760000038,0.0
mp-3694,Nd1P1S4,-1.3989443574305558,0.0
mp-13843,Li2O4Te1,-1.9505575994047615,0.0
mp-6980,Cu1S2Sc1,-1.473687655156251,0.0
mp-4769,O7P2Si1,-2.548628763595238,0.0
mp-764341,Fe1Li3O5Si1,-2.4960391027499993,0.005016905000154992
mp-554517,F4Mn1Na1,-2.91011530908046,0.0
mp-33940,Mg2O4Pt1,-2.17810045642857,0.0
mp-759413,H4N1O4P1Zn1,-1.6191054576948056,0.0
mp-24338,As3H1Sr5,-1.2367941373611113,0.0
mp-31034,F4Th1,-4.426985403666663,0.0
mp-704634,Ba2Fe4Nd2O11,-2.5590221898684202,0.017484474248082006
mp-6231,Ba2Er1O6Sb1,-3.109491695250001,0.0
mp-29391,Cl3F2Sb1,-1.7652439045833341,0.0
mp-1018091,Ca1Ga1H1Sn1,-0.4116287518749999,0.0490826593750176
mp-568385,Ga1Li1N2Sr1,-0.728849002166666,0.0
mp-753719,F1Li1Nb2O6Sr1,-3.1931320650000004,0.03236108522757258
mp-556228,Ca4F1Na5O16P4,-3.034786168953065,0.0
mp-556999,Er1F1O3Se1,-2.6137393598437413,0.0019666766664923805
mp-21510,As2In1K2Na1,-0.4730172370909953,0.0
mp-651726,Ni3O14P4Pb1,-2.2921153311742417,0.0
mp-683936,Ba4Ge3La1Sb1Se13,-1.4577948217258518,0.0
mp-5342,Ag1Ga1S2,-0.6195302464062493,0.0
mp-7392,Ag1Na2Sb1,-0.4474604437499998,0.0
mp-7765,Ba3O5Si1,-3.235840194722221,0.004120168888911498
mp-7049,Cu1S3Tl1Zr1,-1.2365126184722228,0.0
mp-669317,Cd1Cs3I5,-1.4885906859961697,0.0037261155555561804
mp-22007,Cs1In5S8,-0.8743778887499981,0.00118972633928419
mp-675672,O13Sc2Zr5,-3.8083713901875007,0.10081317723435249
mp-771385,C1Mn1Na3O7P1,-2.356150802282272,0.0
mp-18296,Ba5Dy8O21Zn4,-3.24553137370614,0.006666933749954377
mp-777894,F3Li1V1,-3.0387690306666664,0.0187409399999968
mp-35695,H1Li2N1,-0.49678703822916725,0.0
mp-754237,Li1O2Tm1,-3.351373349374999,0.0
mp-776356,Li2S2Sb1,-1.0330826953333336,0.09895341600000088
mp-733468,H1K2O4P1,-2.3968622882500004,0.0
mp-524,As14Ba3,-0.44724163764706093,0.0
mp-763481,Co1Nb2O6,-2.650057369444445,0.0
mp-12231,O8Sn1Te3,-1.3210729987499998,0.0
mp-4661,F1O1Sc1,-4.065341963333334,0.0
mp-569386,Cl12N1P3,-0.6753736976674105,0.0
mp-764355,Fe1Li1O4Si1,-2.484243147619047,0.001767453928728965
mp-675784,C1H1O1,-0.8913365872500009,0.2656679154314296
mp-772221,Ba5I19La3,-1.9082517407407407,0.07991127472221972
mp-17854,Ge1In1Li1O4,-2.173834300119047,0.0
mp-17964,Ge2Na2Se5,-0.7216828175347226,0.0
mp-23108,Cl6Cs2Na1U1,-2.245872266241379,0.018912803784778377
mp-18756,Ba1Ni1O5Tm2,-3.156385018611113,0.0030682621945032906
mp-560519,Ba3C1F7O3Sc1,-3.7162327514999998,0.0
mp-5811,Cs1F3Pb1,-2.7757861494310347,0.0
mp-504422,H7N1O6,-1.148069990714286,0.006402178749999773
mp-736390,C3H3O7Sr1,-1.798509985922618,0.05189124520078029
mp-642795,F2H1P1S1,-1.6289103021785707,0.0
mp-28711,O1S2Sb2,-0.9485925070000001,0.0015093495000108703
mp-765804,F8Li6V1,-3.0763514520000004,0.056363650333398616
mp-542567,Cd3H6O16Rb2S3,-1.7349197809999992,0.014593697375250276
mp-695409,Ba7Na3Nb3O30Ti7,-3.2726777665097706,0.026003616112432154
mp-753939,Li1O4P1Sn1,-2.405645029710883,0.005276800415974289
mp-7477,Er1O2Rb1,-3.0260324511458343,0.0
mp-554151,O2Si1,-3.033918544166667,0.0
mp-14367,As1O5P1,-1.7795664636394548,0.0
mp-559291,C1O6P1Sn2,-2.0499518395833336,0.028724785999949633
mp-762649,Li1Mn5Na3O9,-1.9943777647014684,0.02390521958331367
mp-770239,Ba2O7Ta2,-3.442274270568181,0.0
mp-22956,Cl4K2Pd1,-1.7258791137142855,0.0
mp-770688,Cr1Li4O5,-2.060169712208334,0.020965191000020766
mp-3953,C1Ca1O3,-2.688771264750001,0.0
mp-27727,C1Cl2O1,-0.5693649399999998,0.01682868835937068
mp-771160,H4Mg1Rb2,-0.22884486714285707,0.013222513095235635
mp-28394,P1Se3Tl2,-0.4031079773189485,0.0
mp-759117,Li2O10P3Sb1,-2.499747639947916,0.07416944010414728
mp-768227,Dy1Nb1O4,-3.491861793611109,0.0
mp-776387,N2O1Ti2,-2.1106568768333345,0.05300393101133736
mp-733509,H4Na2O13Si4Ti1,-2.666989969799449,0.0034868881278396677
mp-2074,Li3Sb1,-0.7441354699999998,0.0
mp-4763,P2Si1Zn1,-0.3916568414880963,0.0
mp-697144,H2N1Rb1,-0.4096934762500011,0.0
mp-1726,K1O3,-0.6572524385624998,0.07742816968749988
mp-626724,H1La1O2,-2.8126896221875004,0.0
mp-7198,P1Se3Sr1,-1.1281384455327383,0.0
mp-556169,F1O3Se1Y1,-2.7984271662934037,0.0
mp-23034,Cl4Sr1Zn1,-2.0266681400000004,0.012543112499992995
mp-553875,N2S1Zr2,-1.8776582884999997,0.0
mp-776657,F8Fe3Li2,-2.7142888970512824,0.023509696923007084
mp-777469,O2V1,-2.4718143966666672,0.0
mp-771126,Lu2O5Ti1,-3.895451300260417,0.0
mp-31050,Cl2O7,-0.30357697236111,0.0
mp-29484,As2Hg1K4,-0.5605141896428572,0.0
mp-558573,O3Y2,-3.875858019000001,0.0
mp-1070,Cd1Se1,-0.7503658170312484,0.0
mp-625274,H5I1O6,-0.975498019583334,0.01556840468749865
mp-6509,F1Ga1O4Sr3,-3.1143925927777776,0.0
mp-768342,Nb2O4Sr1,-2.8171412674999994,0.0
mp-28611,O7Ta2Th1,-3.456633352966665,0.0
mp-11165,F1Mg1Na2O4P1,-2.9246542346040867,0.0
mp-721053,H4Hg3O11S2,-1.3426571783749999,0.003009342558347683
mp-754625,N1O2Sr1Ta1,-2.7273316589666665,0.0
mp-23100,Bi1Lu1O6Sr2,-2.894067896666667,0.0
mp-18863,Cr1O4Pr1,-2.7941505094444423,0.0
mp-755654,Na1O8Sb3,-1.8257524626293098,0.018262807500009377
mp-20893,Ge1O2,-0.30504800388888814,0.0
mp-41109,B1Ca3Er3Ge2O13,-3.32547105876894,0.0
mp-770495,Fe3Li4Mn3O16Ti2,-2.2876120197783263,0.03238000355329973
mp-18925,Co1Li6O4,-1.9372024220454553,0.0
mp-23221,Br3Pr1,-2.2731216979166646,0.0
mp-559969,Ca1Ga1La1O4,-3.221539998928571,0.0
mp-6246,C1Ca2F2O3,-3.23652693640625,0.028063703437434473
mp-31076,Br6Te1Tl2,-1.0373544114814837,0.0
mp-684011,C4Eu8I9N7,-1.38533522732143,0.0
mp-27419,Bi1F6Li1,-2.4961926610416665,0.0
mp-558740,Cu1Dy3Ge1S7,-1.7208348268749976,0.0
mp-39003,Al14Mg3O24,-3.380472736463414,0.014690801707307933
mp-676556,O19Sm2Zr8,-3.706463641939654,0.0
mp-755323,Cl1Dy1O1,-3.5157343829166656,0.0
mp-676975,Ba3Na7Nb7O30Ti3,-2.996911415493104,0.03703852683000889
mp-24356,Cd1Cl3H4N1,-1.0095818316666672,0.0
mp-555977,O2Rb2Zn1,-1.4389016330000004,0.0
mp-10919,C2Pt1Rb2,-0.15982118350000007,0.0
mp-759223,O4S1Sn1,-1.4743398366477267,0.0
mp-568170,Cl3Tb1,-2.5320887843749986,0.0
mp-28346,O5Se2Sr1,-1.9213281412630208,0.0
mp-15802,Mg1Se4Tm2,-1.9520457413392853,0.003009463571426047
mp-18378,Al1K3Te3,-1.121010285214286,0.0
mp-504532,As2O11W2,-1.861686621333333,0.028599377666664576
mp-3635,B1Li1O2,-2.7358391824999995,0.0
mp-755770,Ba2I7La1,-1.9342948014999997,0.025019845500000314
mp-556748,Ca1Cr1F5,-3.563615006071428,0.0
mp-531459,Al2Mg1O4,-3.3168183116326517,0.0
mp-768208,Li3S4Sb1,-1.0235366840624995,0.0
mp-582081,Cl6Cs3Nd1,-2.5154951421293097,0.0
mp-675283,F6P1Tl1,-2.6545269928720234,0.0
mp-557432,Cl1F5Ge1O2,-1.813638694444444,0.0
mp-13614,Be3Cd2F12Rb2,-3.138434192105271,0.0
mp-634059,C1H4N2S1,-0.3320489294531246,0.0
mp-15016,Nd4O7Se3Si2,-3.180191559423827,0.000904255562086842
mp-19483,Fe1Ge2O7Tm1,-2.493839227083332,0.0
mp-765036,F3Li2Mn1O1,-2.7412296279782433,0.032925495535773716
mp-567681,Br3Cs1Pb1,-1.6865702044310318,0.0
mp-641917,O3Si1Zn1,-2.451306389500002,0.036668962708341725
mp-619546,Br4Cs2Hg1,-1.6116017316871958,0.0
mp-504814,Pb2S5Sb2,-0.6426461402777769,0.014786819999999621
mp-18933,Li2O4W1,-2.3448039893452375,0.0
mp-19472,Mn1O7Rb2V2,-2.389706372640086,0.0
mp-6632,B3Ca5F1O9,-3.3801218882638886,0.0
mp-35539,Ge1Se4Zn2,-0.7791670977678576,0.013934860624999981
mp-554343,Cu1K2S3Sb1,-0.962463708982143,0.0007622110714779394
mp-1771,N1O2,-0.6861563608333334,0.0
mp-17363,Ba1Ho2O4,-3.6997138721428575,0.0
mp-769469,C1Mn1Na1O7P1,-2.1579899776321088,0.0
mp-20652,F3Pb1,-2.4446134962499997,0.0
mp-181,Ga3K1,-0.17785871887499946,0.0
mp-7583,S2Si1,-0.7296216185416663,0.0
mp-30977,B5Br1H6,-0.16140284062499907,0.0
mp-13948,Cs2F6Hf1,-3.733029050555555,0.0
mp-754969,Br1O1Tm1,-3.3284328600000044,0.0
mp-20726,Ca1Sn1Sr1,-0.6754485213888888,0.0
mp-772193,H1La1O1,-2.038844711428573,0.0
mp-1013555,As1N1Sr3,-1.052059000250003,0.0
mp-542129,Al1B1Cs1H1O9P2,-2.581134192480158,0.0
mp-677649,Ga9La9Mg1O29Sr1,-3.0643658447448976,0.08334251346478394
mp-5409,Al2O9Y4,-3.7910681213333333,0.011269568233320133
mp-29295,S9Sb4Sr3,-1.2606482558203127,0.0
mp-3273,O25P6Si5,-2.873028081354167,0.0
mp-753799,Cs1O2Tm1,-2.9658964337500002,0.008240715312432645
mp-627993,Li1O5V2,-2.3849379890104165,0.0
mp-755781,Nb1O4Tb1,-3.4897963691666667,0.0
mp-559590,B1Ge1O5Pr1,-2.95477966986111,0.0
mp-766135,Bi2O11Sr6,-2.4248561166447367,0.07976108754386502
mp-15803,Mg1Se4Y2,-1.9892086451785704,0.009552271785655415
mp-573030,Cs2Li1Nb1S4,-1.4938255690804594,0.0
mp-20396,Ca2Nb3O10Rb1,-3.107416866562499,0.046942222187045246
mp-775762,Ag1O3P1,-1.9100216987619028,0.0
mp-698616,F3Fe1Rb3,-1.932301047142857,0.47479413999999814
mp-13975,Er2O2Se1,-3.483933183145834,0.0
mp-19132,Hg1O4W1,-1.645075059583333,0.020223552916663817
mp-573635,Ba2In2Se5,-1.5155049870891197,0.00471829333333239
mp-1020703,Ge1N2O1Si1,-1.3642180647499997,0.04502680333329998
mp-769204,As4Cl1Cu1Li7O14,-1.9304141321604935,0.08237346175797271
mp-574571,Cl6Rb3Y1,-2.499952685999998,0.0
mp-706283,F4H7In1N2O1,-1.4077480693611109,0.08831731533881637
mp-559848,Li4O4Si1,-2.670292092989418,0.0
mp-14620,Cd1Se4Tm2,-1.7736948561011903,0.006256058571428318
mp-557328,Li3O6Sb1Zn2,-2.050848011041668,0.022003110000023085
mp-29143,Na3S4V1,-1.2316560749999992,0.0
mp-569225,I14Mo6Pb1,-0.7219845303571427,0.0
mp-698114,Al1Ba2H7,-0.5318969732500001,0.0
mp-15743,Ce1O4Sr2,-3.494250254761904,0.0
mp-2657,O2Ti1,-3.3124930805555564,0.0
mp-763985,Cr4F11O1,-2.880663734140625,0.032852116744818805
mp-540690,Cs1O5V2,-2.45695737333513,0.0031509084374814478
mp-752450,Ba2I6Sr1,-1.9568247390740743,0.013791629444444453
mp-755367,Cu1Li1O6Ta2,-2.7623331412999996,0.06055024550004795
mp-18037,Li1Nb1O4Zn1,-2.5772695294047616,0.003240050357141858
mp-768085,C1Mn1Na2O7P1,-2.2974761135693758,0.0
mp-771127,O4Rb4Ti1,-2.218639930185186,0.0
mp-554076,B1Ba1Li1S3,-1.533895420729167,0.0
mp-763255,Co1Li1O4Si1,-2.331615361904763,0.04657210197674796
mp-761675,Co1Cr3Li2O8,-2.0364046576190478,0.038225978571434026
mp-758302,Ag1F2Li1,-2.13587950125,0.0
mp-15786,Ho1K1S2,-2.169231776093749,0.0
mp-6564,Mg1O7Si2Sr2,-3.4025970045486105,0.0
mp-13984,Cd1F6Pd1,-1.8276773993749993,0.0
mp-17244,Ba2Ge2O1S6Zn1,-1.5764171881249986,0.0
mp-752406,O3Rb3Tm1,-2.2464121835714286,0.0020262764285722107
mp-554009,Er4F2O11Si3,-3.818717224312499,0.006597613155103233
mp-768203,Be1H2,-0.09319711777777763,0.0
mp-13065,Ho2O3,-3.9068400029999992,0.0
mp-773515,O12Te3W1,-1.5135205949999992,0.02488819562499689
mp-23486,Cl3Ni1Rb1,-1.4979107937500005,0.0
mp-559928,O2Si1,-3.0038952005555553,0.0
mp-32311,Ni1O8Re2,-2.0177387170454555,0.0
mp-758693,Al4H10Na4O13,-2.125320043224417,0.009958077822506909
mp-23933,Al1H3,-0.07363208281249989,0.0
mp-17186,Al1As3Ca3,-1.2602812267857135,0.0
mp-770643,Ge1O4W1,-1.8678014195833323,0.10528422625000496
mp-757666,B5Ca1H3O10,-2.5817457523464915,0.012774928095229959
mp-29282,O7P2Pt1,-1.7956008823452378,0.0
mp-29529,Na1P1Sn1,-0.3834682509920621,0.0
mp-574224,Cs4Si1Te4,-1.0470268841666648,0.0
mp-35493,O4Sn1Zn2,-1.7312554949999992,0.01662952142857169
mp-768285,Be2Ge1O4,-2.692860802619047,0.0
mp-763098,F4Li2Mn1,-2.9884180735139574,0.01941146571428882
mp-715557,O8W3,-2.1363734454545447,0.008345023618880858
mp-557786,Ca1Nb2O11P2,-2.8107866147470233,0.0012757402732246348
mp-675614,In12K2Se19,-0.8623852424403409,0.0
mp-7648,O2Si1,-3.0338072341666673,0.0
mp-706594,H14O19S2U2,-1.9008603027702697,0.010239874990743542
mp-690684,B1Cl1H4Na2O4,-1.8644224918558419,0.006197857346014857
mp-763910,Fe3Li4Mn1O8,-1.983905875704023,0.008130840312403631
mp-706477,La2O7Si2,-2.64966958454546,0.0
mp-763247,Li1O5Si1V1,-2.669827786979166,0.054447545000046116
mp-760509,C1Cu1Li1O3,-1.6019194739583336,0.04289334979173157
mp-616175,Eu1O4S1,-2.3879927896354167,0.0
mp-14963,Nb1O7Pr3,-3.600238312954545,0.0029681381818162126
mp-754262,As2O7Zn2,-1.721749851931817,0.0
mp-605646,Ba2N15Rb1,-0.4666791109722226,0.007572836388889392
mp-558351,O2Si1,-3.0256466533333333,0.0
mp-755698,Hf1O7P2,-2.9350453235952387,0.0
mp-29880,Cl4S1Sm2,-2.640652071875001,0.0
mp-540421,Li2Mn1O7P2,-2.628671322198618,0.0
mp-556282,Al1Ba2In1O5,-2.8705901162962966,0.005224055569131834
mp-650178,F1O3S1Se5,-0.944255832359375,0.0
mp-680145,Cd1I2,-0.8710843498333335,0.0
mp-17060,Al1Na1Se2,-1.2291693873437488,0.0