Material ID,Compound,Energy,Hull Distance
mp-1019708,Ba1Cs1Li1O7P2,-2.941899153681753,0.0
mp-766090,Hf3O12Sc4,-3.874802696578947,0.01614566065787633
mp-14623,As2Cu1K5,-0.4624787473437486,0.0
mp-561374,Ca1O3Te1,-2.394942752944443,0.0
mp-5663,Ba1Ce1O3,-3.5469212264999994,0.0
mp-676498,Gd2Pb1S4,-1.8703149128571417,0.05268236000002143
mp-632711,H1In1O2,-1.576876654687501,0.0031052712499961554
mp-768254,As1Gd3O7,-3.084205452500005,0.035021393863636584
mp-761285,O7Sc2V2,-3.1199586556818186,0.03246894750000448
mp-505663,Cl7Cs1Ti2,-1.937060095583334,0.0
mp-18453,Al1F6Pd1Rb1,-2.897727962222222,0.02256725777915057
mp-541221,Ba1H2N2O5,-1.4129239363750012,0.06381990891844147
mp-568762,Ge2Na4Se5,-1.020473337879604,0.0
mp-756703,Cd1O4Se1,-1.2562812187239583,0.0
mp-705089,Fe3Li1O11P3,-2.369225152486771,0.044150523484930995
mp-758331,Nd1O9Ta3,-3.2924916049615045,0.0
mp-560222,F1Na3O4S1,-2.379745237994093,0.0
mp-12558,As1Li1Mg1,-0.8998631680555557,0.0
mp-676991,Al1H2Na1O7Si2,-2.713585609817639,0.033443137142729555
mp-17791,Cd4Se6Si1,-0.8047778180965905,0.013481545000000398
mp-696986,C1Cs1H2O3,-1.6171869878078822,0.04246547308050452
mp-11051,Na1Sn1,-0.26561781062500067,0.0
mp-27899,As1Cd3Cl3,-0.9905837703571433,0.0
mp-510342,Dy2O11Te4,-2.052036671764706,0.004765005809014407
mp-703376,H7O8P3U1,-1.7263572618515026,0.08366373089294286
mp-28900,As3Br1Cd2,-0.36663327708333426,0.0002813854166662984
mp-29657,Ge1Na1,-0.15468122171336196,0.0
mp-766259,Cl4H10O5Sn1,-1.3177515396875008,0.0
mp-772823,Hf1O5Y2,-3.910703976875002,0.0006946740625020098
mp-690817,Fe1Mo1O5Sr1,-2.145460303802083,0.22120367937519303
mp-625821,H2O3Sr1,-1.20076396909091,0.3125125097916695
mp-705357,Li1Mn1O7P2,-2.5427887883346396,0.0
mp-5279,Ca3O6Te1,-2.651797692999999,0.0
mp-541646,Cl9Cs3Ru2,-1.416818714107143,0.0
mp-1968,La2O3,-3.8505073952500006,0.0
mp-30950,Ge1O1Sr3,-1.5581584170000007,0.0
mp-764773,Co2Cr3Li4O16Sb3,-2.0404868094047623,0.06762180366069716
mp-1020117,Mg1O3Si1,-3.2266852569999998,0.005957224250073523
mp-626727,H4O3Sr1,-1.7981143791145833,0.003680094999892969
mp-764044,F5Mn3O1,-2.7132123776436794,0.021278438194478215
mp-754475,O2Se1Tm2,-3.4766142746354176,0.0
mp-1047,Ca3N2,-0.9430230205000001,0.0
mp-10953,Cd1S4Sc2,-1.7935715930357137,0.0
mp-764250,Fe2Li4Nb3Ni3O16,-2.1639352311904756,0.09199570285683782
mp-758985,P1Rb1S5Ti1,-1.2501828325595223,0.0
mp-770192,Cr1Li2O3,-2.2004185015277784,0.006356615833335096
mp-504934,C1I3Sc2,-1.2673224010416657,0.0
mp-752515,O9Ta3Y1,-3.3225803032307684,0.0
mp-18315,Cs6O7Si2,-2.3845646660287363,0.0
mp-763767,Fe5O13P3,-2.1937840688775507,0.053109389999995586
mp-707754,Ca1H2I2O7,-1.4540077245833327,0.018055007083333702
mp-12449,Li1O6Os1Pr2,-2.798275225166666,0.0
mp-27436,Cl5Pa1,-2.3455950150000007,0.0
mp-696174,C2H3Na1O5,-1.540207674572884,0.062305710659127295
mp-23052,I1N1Zr1,-1.6366629466666656,0.0
mp-32597,Bi13O20,-1.613433393939393,0.03335672829545382
mp-23211,Cl3Pr1,-2.592783406041665,0.0
mp-662530,K1Ni1P1S4,-0.9097799012619048,0.0
mp-4805,Gd2O2S1,-3.519933168125,0.0
mp-754526,Br1O1Tm1,-3.2899011016666697,0.0
mp-29977,B1Rb3S3,-1.2420956302380952,0.0
mp-770668,Cr1Li24Mn11O36,-2.184683974753353,0.0022740515971359323
mp-1019543,Ba1Ca1O7P2,-3.032679225200216,0.0023233760231730375
mp-22877,Cl2V1,-1.6091676916666664,0.0
mp-762980,F1O2V1,-2.425029530625,0.005301518750036482
mp-767467,Li7S32Y7Zr9,-1.954457961848485,0.0004012145455414446
mp-776250,N2O1Zr2,-2.245752685750001,0.0
mp-556372,Ca1O4S1,-2.4043171979687497,0.0
mp-555481,Ba6Er2Ga4O15,-3.0092571972685187,0.0
mp-27254,Ba1O3Te1,-1.9950336248148146,0.0
mp-5024,O7P2Zr1,-3.107934585041666,0.0
mp-18068,Ag2O3Te1,-0.9040472183333321,0.046942156666657464
mp-1009820,C1Sn1,0.8178256637499999,0.8159756531250011
mp-755251,Gd2Hf1O5,-3.792481576093749,0.023003687187501676
mp-768164,C1Ge1Li1O7P1,-2.240084205492423,0.04349320382558213
mp-557772,Cs1F3Ni1,-2.5685232994999994,0.0
mp-556649,Br1Ga3Li4O12Si3,-2.5502619811594194,0.0
mp-4748,Na1Nb1O3,-2.822724499560345,0.0
mp-676020,Ba1C1O3,-2.650240159750001,0.0
mp-16454,Ba1Pr2S5Zn1,-2.059040417314814,0.0009647901389442382
mp-559276,Al1B1O4Pb1,-2.7155883898809514,0.0
mp-38307,Al2Mg1O4,-3.3279662792857083,0.0
mp-582182,As4Cs5In3,-0.41187694652298923,0.0
mp-757116,Er1O3Rb3,-2.2228394850000015,0.00544615535711885
mp-557888,F9K5O4U2,-3.450761868875001,0.0
mp-24463,F1H3O4S1,-1.6140113831944438,0.0
mp-17825,O4Si1Sr2,-3.2980129125,0.0
mp-774231,B2Fe1Li1O5,-2.45547960712963,0.034587107234989624
mp-581024,Cs1K2Sb1,-0.558875109375002,0.0
mp-3136,Na1Nb1O3,-2.797902110775862,0.0
mp-29970,Cs3O14Sb5,-1.960161661195141,0.0
mp-763362,F3Li1Mn1,-2.969606571752874,0.018346049749996853
mp-5476,Cs4F10Mg3,-3.429224737352941,0.0
mp-772024,Ba3Br9La1,-2.584786843461538,0.005492720192313035
mp-643895,Cs3H5Mg1,-0.2905959978017252,0.0
mp-29857,Bi3Br1Se4,-0.754690423671875,0.02433251124999941
mp-23792,Ca2H1Na1O9Si3,-3.101107660320582,0.0
mp-1008523,B1C2N1,0.2638613227083333,0.537334871874999
mp-530524,F15Tl1Zr3,-3.602311707017545,0.0
mp-547244,Bi1Cl1O2Sr1,-2.427591751833334,0.0
mp-560569,K1O3Pd1Pr1,-2.2574966702361103,0.006673963210976019
mp-555946,C1F2O3Pb2,-2.132737839999999,0.002544116874861224
mp-734069,B1C2H10N5O3,-0.8598970046627001,0.010686504142609653
mp-767533,C1La1Na2O7P1,-2.7522356289501224,0.036945922500178696
mp-543034,Ba3O20Si4Te1Zn6,-2.624546733137255,0.0
mp-554157,K1Na1O7P2Zn1,-2.5865244699973657,0.0
mp-541932,H13N3O8S2,-1.156625159375,0.0
mp-6726,Cs1Li1O4S1,-2.3000585207840714,0.0
mp-760782,Cu1F6Li5,-2.767910706666667,0.09038438020837347
mp-721813,Al1C1H18N3O14S2,-1.3638063958440176,0.01773655789825695
mp-20815,F4Pb1Sn1,-2.5942736083333333,0.03174888041669455
mp-30159,Au1Br1F6,-1.027253035000001,0.0
mp-644271,H1Li1S1,-0.8766683227430553,0.0
mp-7611,Ca1Ge1Li2O4,-2.604905880833333,0.0
mp-556406,As1F10N1S2,-1.9353479465178576,0.01961191504291041
mp-540644,I6S1Sn4,-0.766622341193182,0.0005368597727271052
mp-30248,Li1Mo1S2,-1.1228799584895839,0.022050719166663235
mp-760375,Li3S4V1,-1.3597428462500005,0.0
mp-23849,H2Li2O5S1,-1.992565383854167,0.010832969250003188
mp-27831,Cl6Rb2Zr1,-2.1958886680555563,0.0
mp-697139,H1N2P1,-0.552300615208333,0.0
mp-27949,H6O1Si2,-0.46869140800925874,0.04965589499999466
mp-19031,O3Rb1V1,-2.407035927,0.0
mp-542266,H1K1O10P3Sm1,-2.8517671962812505,0.0
mp-555392,Au2I1K6Na1O8,-1.47088305941954,0.0
mp-542099,Cs4O4Pb1,-1.5081800007471264,0.0
mp-23395,Cl1Hg2O1,-0.48028813624999955,0.012067292500009152
mp-775196,Cr3Li2Mn1O8,-2.1478405610426927,0.005267423809477074
mp-558838,F6Ni1Pt1,-1.788299183125,0.0
mp-558122,Cl1Gd1O4S1,-2.620449164285714,0.0
mp-776293,C4Na4O16S1Sb2,-1.8754250960863663,0.05887296233027657
mp-574599,Au1Cs1Se1,-0.9264883939996386,0.0
mp-776253,Li5S4Sb1,-1.1778818069166668,0.051351565499990134
mp-769649,Gd1O9Ta3,-3.4814615656730767,0.0
mp-755104,Ba2Cl7Y1,-2.7960701541666664,0.009044495750002568
mp-675857,Cd2O4Sn1,-1.5232695435714305,0.0
mp-767672,F5Li1V1,-3.0483548136904766,0.001775361071415103
mp-768243,O5Ti1Tm2,-3.7805775723958206,0.0
mp-764774,Li1O12Ti2V3,-2.747896886805556,0.006651192293108781
mp-14577,Rb4S11Ta2,-1.2571556845392147,0.006798836568636133
mp-15382,O14P5Tm1,-2.8290642145357134,0.0
mp-572921,As5Cs2Ga3O18,-1.9333934990825132,0.0
mp-28535,Ca2O8Se3,-1.7773288236298082,0.0
mp-557793,F19H2Li1Rb4Zr3,-3.463841987356322,0.0
mp-5185,Be1F4K2,-3.3255125722857146,0.0
mp-753854,H3O8P1Rb2Se1,-1.8768677593784722,0.0
mp-18987,Li1Mo1O7P2,-2.5840284087499996,0.0
mp-27473,F14Sb2Te1,-2.370387427941177,0.0
mp-6394,As1O5Rb1Ti1,-2.350052582864583,0.0
mp-756578,I5La1Mg1,-1.6301410471428572,0.014744466428569985
mp-673119,Li1O10P3Sn2,-2.4187037645163683,0.04674529239519831
mp-767409,Li5S1Sb1,-0.9842453128273811,0.05033987999999961
mp-568134,Cd1Cs2I4,-1.4378301764285684,0.0
mp-772605,As1C1Na1O7Sn1,-1.8913466973001563,0.027261889732184453
mp-28122,Cl4Gd1Li1,-2.344336875277778,0.002349557500004096
mp-13801,O7Pt2Tl2,-0.8625734427272701,0.0
mp-654008,Cr11K3S18,-1.138680967558594,0.0
mp-554879,Br1Cu1Hg1S1,-0.5588310593750014,0.028853436458334825
mp-567836,B1K2Na1P2,-0.3809224582219481,0.0
mp-30249,Ge1Li4S4,-1.2170589944907404,0.0
mp-37399,Li7Nb1O6,-2.410616674702381,0.035931814285714125
mp-766433,Li4Nb6O20Sr3,-3.0502272646464648,0.030238482121246312
mp-29848,F3I1,-1.6953302681249998,0.09569561577500241
mp-17155,Ag1La3Se7Sn1,-1.6757910698394092,0.0
mp-28570,I4In1Na1,-1.0296191579166678,0.0
mp-541771,Bi4I2Ru1,-0.36487795928570677,0.0
mp-17953,Mg1Nb2O6,-3.102363481944445,0.0
mp-561022,F4Mg1Sr1,-4.003735184166667,0.021782493888916694
mp-676687,Ag4I5Rb1,-0.6786447646666666,0.0347979946250014
mp-762870,Cr1Li2O4Si1,-2.545137338958333,0.048833213233933304
mp-1001079,C1Li1N1,-0.0001606776666662313,0.31056387180694545
mp-776053,Li2Mn2O6Ti1,-2.4710704216692787,0.07886384073758279
mp-18335,Ba2Ge2Se5,-1.2757701886458348,0.0
mp-3671,Na1Nb1O3,-2.648839443999999,0.0
mp-769040,Bi1Li5O4,-1.9468999361666661,0.03995935787496485
mp-27641,Br3Cs1,-1.1809124631250008,0.0
mp-34038,Cl3Li6N1,-1.4355685235000002,0.0339372899999999
mp-510539,Cu1Dy3Se7Sn1,-1.5303630317838532,0.021889339666418522
mp-28428,K3Nb2Se11,-1.0688750314082025,0.0
mp-700,Ge1Se1,-0.2023929595312488,0.0
mp-567983,Cu1Er1Pb1Se3,-1.2350505524218753,0.0
mp-553880,S1Zn1,-0.9618031029447116,0.0
mp-677075,Cd1Gd2S4,-1.8753891232142854,0.09447268357145815
mp-23961,As1H18Na3O9Se4,-1.1906918985080048,0.010071188571105795
mp-554663,Mg2O4Si1,-3.160190729285714,0.0
mp-18247,O6Rh1Sc1Sr3,-2.9457895679545447,0.0
mp-772064,Ba1Cl5La1,-2.8403786033333334,0.06202267517857507
mp-760676,Cu2Li1O4P1,-1.834179149122023,0.09721506593559304
mp-12509,O1P1Y1Zn1,-2.0361640709375006,0.0
mp-19345,Er1Mn2O5,-2.654518891357764,0.0
mp-561423,Cd1F7Tl1Zr1,-3.2050887990833337,0.0
mp-600060,O2Si1,-3.256224107847222,0.0
mp-753600,Bi3F1O4,-1.8060274003124999,0.025534654687498604
mp-770931,Cu1O4Te1,-1.1476245261111107,0.0
mp-760778,Ag1F5Li2,-2.2439561257291674,0.03802494875080198
mp-27405,As1F7Sn1,-2.5276330186111116,0.07802524259260066
mp-3956,O6Sr3U1,-3.53555631225,0.0
mp-675209,Dy2Pb1S4,-1.8495071925000006,0.06775192535714199
mp-756030,Gd1O3Tm1,-3.9269915385833327,0.06902615762502436
mp-1019570,Ca8O18Si5,-3.3245908465591394,0.0005630454032156297
mp-557,O2Te1,-1.110099065833334,0.0
mp-772421,Fe1K1Li2O3,-1.8341498287023807,0.06590801339285081
mp-542214,Cl10O7Si6,-2.1082358257427543,0.016890462989125988
mp-541218,Gd1H9O10P2,-1.9339094080303028,0.049177245983860925
mp-14600,Al2Ca1O4,-3.4535965121428567,0.0006503210477052537
mp-645282,Al3Bi5Br12,-1.1900178655000002,0.020031199374999708
mp-753976,As1Gd1O4,-2.530412027916668,0.0
mp-766293,Ag1Al11O17,-3.2456757835919543,0.023993931551719708
mp-557451,Cs1F6O1Re1,-2.664247517461687,0.0
mp-1045,Nd2O3,-3.6697150564999985,0.0
mp-3881,Ba1F4Zn1,-3.3589206099999998,0.0
mp-774252,Cr2Fe3Li4O16Sb3,-2.0107892347619045,0.062083789322794
mp-772073,Li2Nb4O11,-2.9105135346568614,0.058024602720584705
mp-568386,Ag10Br3Te4,-0.38526627460784324,0.0
mp-28599,Br2Na4O1,-1.6751389250000008,0.0003113342857132194
mp-583646,B2Gd2Na2O7,-3.1345871700143673,0.0
mp-10662,C1K2O3,-2.0927465374166623,0.0
mp-756460,Ga2Hg1O4,-1.5383464846428399,0.03219456964285757
mp-7538,Er1La1O3,-3.9393796182500003,0.02728119387501806
mp-7018,Ga1La1O1S2,-2.2260692619999993,0.03348903199589905
mp-16993,Er2O5Si1,-3.812034571718751,0.0
mp-29371,Ga1Rb2Sb2,-0.4902619717500002,0.0
mp-1858,Hf1O2,-3.996532089166666,0.0
mp-686308,Ga5H15Na6O32Si7,-2.11471296048939,0.12625088062179088
mp-30906,Al6O11Sr2,-3.4586730436622797,0.004676789736846767
mp-14288,P4Sr3,-1.1078930374149658,0.0
mp-561244,As1C1Cl2F9S1,-1.9022054707589287,0.07512972685076644
mp-568638,Cu1Se7Si1Y3,-1.5766799842838541,0.0
mp-28271,B1F13Sn5,-2.721934099692983,0.0
mp-755742,Ho2O7Sb2,-2.606605556045454,0.08388485530332478
mp-29739,Na5Sb3Sn1,-0.4150627695162833,0.0
mp-560176,Al3F12K2Na1,-3.6459934587528733,0.005761584923031964
mp-556584,O3Pm2,-3.726175484000002,0.0
mp-3963,C1K2O3,-2.1079366761666627,0.0
mp-764510,F1Fe1O1,-2.040422721342593,0.040905479444460845
mp-754202,Cl1Cs1O3,-0.799582035875001,0.03418474212498239
mp-2472,O1Sr1,-3.0777269927083326,0.0
mp-558669,Al2B2O7Sr1,-3.265359792604166,0.0
mp-558688,B4Ba2O11Sc2,-3.318802290153509,0.008211730482322821
mp-29636,Br3K1Mn1,-1.6482859121465538,0.0004732687499979349
mp-17662,Lu2O4Pd1,-3.0353691463690415,0.04826630125011227
mp-19054,Ba1C1F2Mn1O3,-2.79358610849138,0.023672099374522748
mp-558212,K1Na1Nb1Nd1O5,-3.0066420350890812,0.0
mp-775110,Co1Li2O8Ti3,-2.9239179151190475,0.0
mp-3311,O4Sr1U1,-3.6662720141666654,0.0
mp-625208,H8O6Pt1,-1.1628671545000002,0.04856876099999947
mp-552963,O5Pr2S2Ti2,-3.2623790551515155,0.0
mp-642847,H6Li4Ru1,-0.502798061287879,0.0
mp-558980,Cu1Er3S7Si1,-1.7293666803906262,0.0
mp-628908,Cl2I1K1,-1.3958514904375,0.0
mp-540610,K2O22U7,-3.4686826870806424,0.04173368758063959
mp-22633,O4Pb3,-1.1801627332142866,0.0
mp-776890,O1Rb2,-1.1195219729166663,0.0
mp-6331,B2Na2O7Y2,-3.1555291058477004,0.004382841195921335
mp-567568,Ca2N4Sr1W1,-1.2326906709895837,0.0
mp-18498,O6Rh1Sr3Y1,-2.9105360159090905,0.0
mp-644506,Al1C1H2Na1O5,-2.178672311387919,0.0
mp-775829,N2O1Ti2,-2.1304969228333333,0.05300393101133736
mp-573358,B1Cs1Se3,-0.6983237354375007,0.0
mp-11602,Cu1K1S4Y2,-1.9110348098541667,0.0
mp-7643,Ag1K2Sb1,-0.5024591443749991,0.0
mp-569442,Au1Cl4Rb1,-1.0547442902083333,0.0
mp-5532,O4Sr2Ti1,-3.3469518423809523,0.0
mp-755685,O3Sm1Y1,-3.770401074000003,0.06343879237500971
mp-27664,Cl9P1Ti1,-1.5479870737878785,0.0005235685795496956
mp-721216,Al2H4O9Si2,-2.6090746513235294,0.012669862500024213
mp-19484,Ba1Ca1O7V2,-2.912479902272727,0.00015660999994534822
mp-649619,As3Cl1O9Pb5,-1.5399403899999997,0.0
mp-29680,Bi4O11Ta2,-2.148107002333334,0.0
mp-697284,H3K1O6S1,-1.5563300900909085,0.035173073920341386
mp-777417,Li4Mn3O16Ti5,-2.8804596122783246,0.043061860892829075
mp-694875,Ba2Ca2Fe3O14Zn5,-1.9968004323076913,0.17875902358659126
mp-34234,Al2Ni1O4,-2.794558507857143,0.0
mp-688785,Al2Ni1O4,-2.7766470292857144,0.0
mp-567741,C2Cl4N3P1,-0.5216640869642859,0.056171892749970184
mp-764844,F1Li7O11V4,-2.492457661666666,0.05593556157596177
mp-22450,Li2O3Pb1,-1.7891471404861115,0.0
mp-652220,Br2N1P1,-0.4856738413690465,0.0
mp-19110,Ba1Cr1O7P2,-2.8911758075378784,0.0
mp-28397,Bi6Se13Sr4,-1.2435863157450182,0.005289858043479565
mp-17254,Ga1Se2Tl1,-0.8168470160677086,0.0
mp-676893,Ca4F12Th1,-4.201752933529412,0.10369555284312906
mp-5038,Cs1Ga1S2,-1.2320298214062504,0.0
mp-557881,O2Si1,-3.025599768611111,0.0
mp-759342,As1Nb9O25,-2.6154517184999997,0.014940642839272706
mp-14242,Ge1Se3Tl2,-0.45145559786458495,0.0
mp-17392,Ge2O7Sr2Zn1,-2.6023575357986104,0.0
mp-559835,Ba1F7Ta1,-3.7911336349814806,0.0
mp-555853,In6S7,-0.6851884345913478,0.012039967211539814
mp-555105,F29O20Pb12Ta9,-3.018208490535715,0.0
mp-770357,Al1Li2Ni1O4,-2.204425444270834,0.07236528718768653
mp-22934,Cl4K2Pt1,-1.507347296785714,0.0
mp-23806,As1Ba1H3O5,-1.9542747952500001,0.006700025060795767
mp-642750,Na1O4V2,-2.415907063768471,0.01905132210708262
mp-756316,Li3S4Sb1,-0.9941717695312491,0.0
mp-24160,B1F3H3N1,-1.9489847869270829,0.0
mp-510346,Br1In5Se5,-0.7971521942471592,0.02597648723484899
mp-642975,Bi12Cr1Mo4O34Pb1,-1.8168618743750007,0.007389436213992658
mp-756096,Hf2N2O1,-2.4583855702500004,0.0
mp-21879,Ba2Ce1O6Pt1,-2.8016915247499994,0.0
mp-559455,C2Cl2F5N1S1,-1.3061892171022726,0.09815582170963405
mp-3041,Cd1Er2S4,-1.9341178039880933,0.0
mp-5163,La1O3Rh1,-2.5457733022500006,0.0
mp-699219,H1Na1O4Si1Zn1,-2.340455301131465,0.0
mp-775461,Fe1Li2O8V3,-2.3448080242261917,0.010685878943657912
mp-29388,Ge2K2Se5,-0.9529248284687503,0.0
mp-27674,As3K5O10,-1.8041462296527773,0.0
mp-30847,Pt1Sn1Ti1,-0.8255829327777775,0.0
mp-756624,Ba2I6Sr1,-2.0337808740740737,0.013791629444444453
mp-5122,Al1Na3P2,-0.6483318534920635,0.0
mp-570046,Mo1N4Sr3,-1.101091231666666,0.0
mp-1287,K1S1,-1.098999187447916,0.0
mp-12444,Cu1F1S1Sr1,-2.303967129322917,0.0
mp-31268,Al1Bi1Br6,-1.4028344450000008,0.011878343437499939
mp-559703,Ba1La2O14Te5,-2.3217487025378776,0.0
mp-24362,C1Cu1H6N2O3,-0.8785078230769224,0.06019225750611859
mp-1019521,Ba3Ge1Mg1N4,-0.7132396883333337,0.0192424028241458
mp-18229,Ca1O6Ta2,-3.4835459975,0.0
mp-31166,Dy1S2Tl1,-1.7377058898958335,0.0
mp-16764,Rb1Te2Y1,-1.602273838125,0.0
mp-553950,Li10O10Pb1Si2,-2.488681602210144,0.002734348301580123
mp-2254,Al2O3,-3.33611666825,0.0
mp-754145,Lu1O3Tb1,-3.9242870140833332,0.06625213850003035
mp-3359,Ba2O4Sn1,-2.579374138571428,0.0
mp-625054,Al1H1O2,-2.643304077812499,0.0
mp-774224,H12In1N1O12S2,-1.4166707064880946,0.011433351680131107
mp-556234,O14Rb3Sb5,-1.9738311304545446,0.0
mp-733,Ge1O2,-1.7707559355555544,0.0
mp-557134,O2Si1,-2.9507751,0.0
mp-21741,As3In2K2,-0.4123574569285715,0.0
mp-17677,Nb9O25P1,-3.0158924877738094,0.028767252857143637
mp-541811,Cs6Ga1K3Sb4,-0.47608066457758624,0.0
mp-763313,Co1Li1O4Si1,-2.317000571904763,0.04657210197674796
mp-767415,C1K1Nb1O7P1,-2.4515911686439393,0.12702552300983685
mp-698644,Pb1S4Tm2,-1.523768115535715,0.003351286249992924
mp-573316,Cs1Pt2Se3,-0.7874679778645799,0.0
mp-17100,In2O7P2,-2.159397312813853,0.0
mp-581173,Cs10O9Si7,-1.8297026054061667,0.0016970150333090845
mp-772256,Li1O5P1V1,-2.615508291934524,0.0
mp-560490,C2La2N4O1,-1.5305140647222228,0.0
mp-17012,N3Sr2V1,-1.3475653981250015,0.0
mp-555800,La2O7Si2,-3.4951714142424306,0.0
mp-557737,Al2Bi1S4,-1.0362371662499978,0.0
mp-554769,Br1Mo1S1,-0.9524621651041656,0.016060038888888812
mp-15078,O2Si1,-3.0282376129629633,0.0
mp-17350,La2O6Te1,-2.8025465177777766,0.0
mp-754537,Li1Lu1O2,-3.3182402152083332,0.0
mp-770328,Cr3Fe1Li4O8,-2.284072011145832,0.002461021562488952
mp-567716,Al1Cl4Tl1,-1.8364759055555577,0.0
mp-759792,Ag2B8O13,-2.5007291190398546,0.0
mp-542199,Ag4Ge2Hg1S7,-0.4625075765476185,0.0
mp-24337,Cl2H2Mg1O1,-1.7967809552083331,0.0
mp-7140,C1Si1,-0.19998679375000084,0.0
mp-17696,Ba2N3V1,-1.217762717916667,0.0
mp-18988,Li2Mn1O3,-2.18074887680795,0.0
mp-17229,Be3F9Rb1Zn1,-3.313874849285715,0.0
mp-680410,K3Nb2S11,-1.1736931742734384,0.0
mp-754818,Na1O3Ta1,-2.982666945560345,0.0
mp-706653,H8N2O5S2,-1.0176115574999989,0.07469747975925438
mp-768141,C1Dy1Na2O7P1,-2.7667645320988985,0.025970233994020948
mp-703305,H1Na2O4P1,-2.3552831857689345,0.0
mp-5076,O3Sr1Zr1,-3.650416110583334,0.0
mp-4366,C2Na2Pt1,-0.04460148355172393,0.057163810999999676
mp-4284,Cd1Ho2Se4,-1.7741062037499984,0.010890775357140623
mp-541593,F8Pb2Zr1,-3.2338673163635265,0.019947476818127283
mp-755969,La4O9Sr3,-3.3555266470312546,0.057933225937516486
mp-546546,O2Si1,-3.0043145783333327,0.0
mp-40873,Ba3Na2Nb2O15Ti3,-3.199870782574138,0.028799535775725076
mp-560132,Nd2O5Si1,-3.5931364571874997,0.0
mp-10791,B1Er1O3,-3.5024717856666654,0.0
mp-7744,F1Li1O3S1,-2.2221317076388893,0.0
mp-30206,Cl1Cs1O4,-0.7251541887499992,0.0
mp-35909,Ag1Bi1I4,-0.6672910127777772,0.04024018666666677
mp-772109,Bi1Li1O4Si1,-2.5003020047619047,0.023689681258661364
mp-768145,Dy1Ho1O3,-3.9323341685833326,0.09012610558320304
mp-6160,F1O3P1Rb2,-2.7555992831632623,0.0
mp-31117,Nd1O3Sc1,-3.897227354249999,0.0
mp-10341,Ge1O6Sr1Te1,-2.270328694074073,0.0
mp-7608,Li2O2Pd1,-1.5414783526666653,0.0
mp-622213,Ge1S2,-0.6472370837499994,0.0
mp-561200,F6Mn1Na3,-2.778461088258621,0.0
mp-18805,Co1Mo1O6Sr2,-2.4395998975,0.0
mp-31127,O13P4Sr3,-2.9223220230952394,0.00551587650049008
mp-1019783,K2O3S2,-1.8133485418928568,0.032693799750267614
mp-772034,Ba3I9La1,-2.0046164550000003,0.013564085192300287
mp-4192,As1Ca3N1,-1.2923408102499991,0.0
mp-768483,Lu3O12Sb5,-2.684465001000001,0.0
mp-555976,Na2O5Si1Ti1,-2.9906073003991054,0.0
mp-558257,Cl1Dy1O3Se1,-2.490598804765625,0.0
mp-19241,Ba1Ni1O3,-1.82070495225,0.0
mp-559612,K1Li1O1,-1.6428561533611106,0.013481023333330159
mp-14485,La1O19Ta7,-3.2246789335679003,0.0
mp-34034,Ba8Br1P5,-1.3536582978486373,0.0
mp-26209,Bi1Li1O7P2,-2.538786336931817,0.008196213030155648
mp-766447,Cu4Li2S3,-0.5705018497569417,0.03140927839338876
mp-772769,Ge2Na2O5,-2.126088124094827,0.00927495892854561
mp-763908,F1O5V3,-2.589043157222223,0.00132751277769769
mp-676300,Nb1O7Sc3,-3.5221284414772716,0.10032042204541627
mp-6663,Ge4Li1Na1O9,-1.9499237251111121,0.0
mp-27418,Au1K1O2,-1.1219965776249996,0.0