Material ID,Compound,Energy,Hull Distance
mp-29505,Bi1Cs3O3,-1.4914882146428567,0.0
mp-555467,Al1C1F5O3Sr2,-3.5076938618402775,0.0
mp-19377,La2Li1Mo1O6,-3.0661478825833326,0.001963583666828228
mp-10485,Ba1Li1Sb1,-1.1089228838888896,0.0
mp-505297,Nb1Ru1Sb1,-0.5156329949999995,0.0
mp-556528,Ge1In4S4,-0.6766821796296275,0.0
mp-754146,O3Rb3Y1,-2.183668950714286,0.009775912142722174
mp-777900,F6Fe1Li3,-2.9569576255000003,0.0
mp-559128,C1Ca1O5Te1,-2.241209174427084,0.00018001578126947138
mp-754837,Hf2N2O1,-2.46154304625,0.0
mp-334,F3La1,-4.509147618541667,0.0
mp-3203,Nd1O4Ta1,-3.6789064987500004,0.0
mp-23195,Bi2O3,-1.6398592707500002,0.0
mp-707304,Be4H2O9Si2,-2.844847775294118,0.0
mp-756136,Ca1I4Pb1,-1.3572480041666664,0.00010831875000076134
mp-776199,Ag1Cl1O3,-0.3997653875833329,0.001904573999999304
mp-758715,Cu1Li2O4Si1,-2.3315784706249993,0.06987345847137671
mp-29976,B1Na3S3,-1.1548220901149417,0.0
mp-561827,Cs3F6Tl1,-2.5607912984999985,0.0
mp-765735,F1O2V1,-2.395248539375,0.005301518750036482
mp-15702,C1Mg1N2,-0.2662219618749999,0.0
mp-754790,N2O3Ti3,-2.6066909071875006,0.0045745415702880265
mp-567636,Fe1Sb1V1,-0.2752190966666663,0.0
mp-669414,Hf1O3Pb1,-2.8404842884374886,0.00888730318748614
mp-18788,Co1Cr1O4,-1.5900989999999997,0.018029486916618136
mp-14132,Al5Lu3O12,-3.7227458443749994,0.0
mp-556781,Cu1Ge1S7Y3,-1.7232493726562506,0.0
mp-567720,Br1Cu1Hg1Se1,-0.5537050693359378,0.009407001145833371
mp-776115,Fe3Li2Nb1O8,-2.1587570701190475,0.010505108928512133
mp-3931,F1S1Sm1,-3.3181955633333344,0.0
mp-641987,Pb7S19Sb8,-0.6380858756617634,0.012062125882352311
mp-766957,B1Fe1H5N1O9P2,-1.9515858441885974,0.0
mp-644264,Ca4Fe3H22Mg4,-0.5303221218181815,0.0
mp-560641,Ba12Cl5F19,-3.914423715208334,0.015753427500098068
mp-19291,Na1O5P1V1,-2.62733109325277,0.0
mp-560242,F3Mn1Na1,-2.9693284903965513,0.0
mp-760629,Bi1Li1O7P2,-2.486987612283549,0.008196213030155648
mp-581370,Cl1Cu3O8Se2Y1,-1.5998855579791667,0.007500052852049066
mp-773066,K1O8P1Ta2,-3.099714071379959,0.0
mp-777528,F6Li3V1,-3.1609467995000005,0.0
mp-3611,Dy2Hf2O7,-4.01534079875,0.0007984481818087116
mp-754942,O4Sm2Sr1,-3.6183266888095234,0.02043617839284703
mp-773181,Cr3O8W1,-2.1445572266666666,0.09500586583337108
mp-675192,Ce3Dy2O9,-3.892169910267858,0.06612410142856565
mp-19833,Ag1In1S2,-0.6777584844791664,0.0
mp-557667,Ge3O11Pb5,-1.8376642516228057,0.0
mp-569050,Cl18N1Na1W6,-0.9987546197596154,0.0
mp-19260,Li2O4W1,-2.426426499047618,0.0
mp-14964,O7Pr3Ta1,-3.7181131982954536,0.0
mp-773525,Fe3Li1O4,-1.672687697291666,0.028530673124973926
mp-556583,Cs1F7Sb2,-2.8093568197155268,0.0
mp-17892,Ca2N3V1,-1.4135164518749999,0.0
mp-755565,Br1Ho1O1,-3.3824811079166666,0.0
mp-18883,O3V1Y1,-3.3216388295000003,0.0
mp-16961,Na6Se7Si2,-1.0964581585624993,0.0
mp-10349,Na2O6Sn1Te1,-1.8651900752270116,0.038175107624628876
mp-28536,Ba1O5Se2,-1.9188658666796874,0.0
mp-734377,Cd1H8K1O13P3,-1.9419720487953296,0.031494990634818705
mp-641415,O4Pb1W1,-2.0107024924999997,0.0
mp-769218,Ni1P1S3,-0.46126976726851865,0.06689553924000205
mp-622086,Ge1La2S5,-1.8346493132031245,0.0
mp-777459,F6Fe1Li3,-2.944235143,0.0
mp-762538,Fe11Mn13O32,-1.84739709273399,0.019172169388456846
mp-773196,C1Co1Li1O7S1,-1.7737256528030307,0.06204682988635568
mp-770678,Cr2Li2O7,-1.8691582935606073,0.011075124886345251
mp-616641,I5K2U1,-1.3501820130624989,0.005639902499999572
mp-771174,B2Ba2O5,-3.130899851898148,0.0
mp-2400,Na1S1,-1.0783823110883621,0.0
mp-24683,H1O8P2Rb1Zn2,-2.372911954859671,0.0
mp-5449,Na2O13Ti6,-3.3175933293739748,0.0
mp-643989,C1H1K1O2,-1.5695739406000002,0.0868974346647434
mp-561259,F6Na3Nb1O1,-3.1732568696943573,0.0
mp-571531,Cs3I9Mo2,-1.0708363852709364,0.05092027898809575
mp-762326,Cu1F5Li2,-2.4253625719791665,0.0057182542708438255
mp-21190,O3Pb1S1,-1.716361509875,0.057590510749940906
mp-542625,Ga1Sb3Sr3,-0.9496347339285711,0.0
mp-757874,Bi1Li1O4Si1,-2.5233710624404755,0.023689681258661364
mp-3524,Li1N2P1,-0.9905097466666675,0.0
mp-27618,Ga2Na8O7,-1.790645297205882,0.0
mp-19013,Li1O5V2,-2.3909463307291663,0.0
mp-757082,Bi1Li1O8Si3,-2.8194074944871796,0.07540606105781987
mp-775932,Ba2I7Y1,-1.8590622507499994,0.031066457500000054
mp-643243,Cs2H6Pt1,-0.37761407954022985,0.0
mp-569209,As1Cl13P1Sb1,-1.1907015273214285,0.0
mp-384,Mg1P4,-0.2983330857142853,0.0
mp-777551,F3Li1V1,-3.0291914071666675,0.0187409399999968
mp-757324,Ce1O14Zr6,-3.780116241071428,0.05177457523816253
mp-690581,Li6Mo2O7,-2.101900581416666,0.034012867999985964
mp-6668,Li1O5P1Ti1,-3.043508785476191,0.0
mp-752533,La2O4Sr1,-3.569997051666666,0.048968965000003806
mp-557747,K2O7P2Sr1,-2.917363852815475,0.0
mp-33816,Fe2O5Rb6,-1.4217593301923073,0.0
mp-2176,Te1Zn1,-0.5652476375000006,0.0
mp-754073,Lu2O5Ti1,-3.777040692812502,0.0
mp-19112,Fe1O4S1,-1.8584963180208334,0.0
mp-775320,Li4O8V3,-2.4436998448888887,0.05575041819445043
mp-28332,Cs1I4Tl1,-1.0286447247940613,0.0390637741666667
mp-22355,In1O6Sb1Sr2,-2.583106877333333,0.0
mp-755894,Li2O1,-1.9758039638888878,0.0
mp-626161,Al5H1O8,-3.1951347472321427,0.005557733214280246
mp-2739,O2Te1,-1.491594133055555,0.0
mp-619279,In2Pb1S4,-0.8153426851190463,0.00667369625000193
mp-653579,Cl1Re3S4,-0.9345311081249994,0.0
mp-556488,F3Ni1Rb1,-2.617191798999996,0.0
mp-1020666,Li4O7P2,-2.048710339816849,0.0
mp-1020670,B4O7Sr1,-3.0123259054861102,0.006765521435182127
mp-771045,La2O5Si1,-3.5955923812500004,0.0
mp-24617,Gd1H2O9Rb1S2,-2.277373751833333,0.0
mp-541001,I4In1Li1,-0.9898592227777764,0.0
mp-28163,F4K2Pd1,-2.3703632324999995,0.0
mp-756205,Bi1O3Sc1,-2.7804001720000002,0.021432688999863458
mp-756127,Nb1O5Ta1,-3.1414288617619053,0.05760592330356725
mp-775767,Ag1As1O3,-1.2298617638333327,0.0
mp-14680,Ga2S5Sr2,-1.6548420496064813,0.012357444722217892
mp-704943,Li2Mn3O8Zn1,-2.018829875389984,0.0
mp-5339,Cs1Na1Te1,-1.2330644500000005,0.0
mp-557175,S1Zn1,-0.9618197130729177,0.0
mp-559760,I1O1Sc1,-2.9090650329166663,0.0
mp-759962,F1H5N1O3P1,-1.5989378747402596,0.0
mp-721067,Ca1H8Li1O13P3,-2.1245949242216113,0.03623066749850396
mp-558933,Ge4Na2O9,-2.129178851239463,0.019555574682540565
mp-17868,As1Na1O3,-1.8917089672270122,0.0029867879111503013
mp-1018033,Ag1O2Rh1,-0.8718043841666647,0.03777465374999878
mp-505511,As1Co1Se1,-0.5332964978645846,0.0
mp-18815,K1O3V1,-2.4116287783500012,0.0
mp-4758,F7K2Nb1,-3.2813397449999995,0.0
mp-24294,Cl1H1Hg1O4,-0.6852882485714288,0.0
mp-542067,Rb4S14Ti3,-1.3373095526190422,0.0
mp-542676,Lu2O11Te4,-2.308592631029412,0.011910714707115865
mp-769301,Ca4O9Ta2,-3.4438080984166675,0.0
mp-555018,Au1Na2O2Rb1,-1.2911858950431032,0.0
mp-3379,F5K2Sb1,-2.919184834937501,0.0
mp-6481,Na2O8Si3Zn1,-2.835620437721675,0.0
mp-768222,Ba1F8Y2,-4.308746011212121,0.0
mp-775837,O3Sc2,-3.7808258120000007,0.0
mp-505158,Cs1Ho1S2,-2.1171871176562505,0.0
mp-29690,O5Te2Tl2,-1.3679661773611107,0.0
mp-674465,Cl4K2Sr1,-2.5045982800238096,0.026999855178578867
mp-769003,Ba1Cl11Y3,-2.7168824133333342,0.07089314366666694
mp-763253,Co1Li1O4Si1,-2.303212489047619,0.04657210197674796
mp-559289,O4Ta1Y1,-3.5759375995555565,0.0
mp-18447,As3K3Na2Sn1,-0.4677485080114947,0.0
mp-33948,Ho2O7Ti2,-3.7770448148106057,0.0
mp-1019542,B2Ba1Ca1O5,-3.207684894953704,0.0
mp-759943,Al2O3,-3.3921790673749994,0.0
mp-31073,B7Na3O12,-2.568812441249999,0.0
mp-680384,Ga6O19Sr10,-2.8219813840833337,0.011892723071418589
mp-763191,F3Li1Mn1,-2.9444054662528742,0.018346049749996853
mp-29947,K3P1Se16,-0.41898928646130856,0.002072149593755457
mp-774732,Bi1Li5S4,-1.231470523541666,0.04447025599999943
mp-17888,F12K2O1Zr3,-3.861889210666667,0.0
mp-27345,Bi1Na3O4,-1.5666393646875,0.0
mp-754311,Mg1O4Re1,-2.3828862245454534,0.0968662845832758
mp-554172,Ba3S7Zr2,-2.1328974172395845,0.0
mp-6511,C1K1N1S1,-0.6380501805624998,0.004682212118052309
mp-675802,O12Y4Zr3,-3.878083977631577,0.010328132763168702
mp-24053,Ag1Cl1H2O5,-0.6983062151851855,0.002220511944444602
mp-15685,As1Cu1Na2,-0.4694485381250004,0.0
mp-4412,La4O4Se3,-3.1671074788352276,0.0
mp-5548,Cd2O7Ta2,-2.507201363151513,0.0
mp-625572,Br1H5O2,-1.1237954976562499,0.001314150342030862
mp-17789,K2O4Ru1,-1.7207009390714276,0.0
mp-34439,O27Tb10Ti6,-3.757255920610465,0.09900838645348999
mp-561672,Cs4Ir1O4,-1.3380452322222236,0.0
mp-764668,F7Fe4O1,-2.393711803854167,0.0461661200264268
mp-569548,Au1Br3Cs1,-1.1103394560000026,0.0
mp-672979,Bi1Li1O7P2,-2.5297669251136354,0.008196213030155648
mp-19717,Pb1Te1,-0.616743183333333,0.0
mp-763205,F1Li2O2V1,-2.6042587723611117,0.006646839166824255
mp-559955,Pr6S17Si4,-1.69301410306713,0.0
mp-32780,Au1Cl1,-0.264202023750002,0.0
mp-769077,Mg2O8Te3,-1.7895598634615362,0.0
mp-777920,F4Fe1Li1,-2.739566823055556,0.002276242685136154
mp-542453,Nb1O5P1,-2.930013808869048,0.0
mp-27690,O7Sr3Zr2,-3.5266418409374993,0.03866721365248497
mp-21904,O3Pb1S2,-1.4057716408333316,0.05091613955727473
mp-625928,H1I3O8,-0.8139123316666664,0.008411546041665977
mp-772972,Li2O5Ti2,-3.100599607731482,0.027627804814794307
mp-607267,Cl5K1Pb2,-1.5442949292187507,0.0
mp-556654,O2Si1,-3.260307280833334,0.0
mp-570536,Ag1Au3I8Rb2,-0.7870249283333308,0.0
mp-763177,F1Li2O2V1,-2.620968408611112,0.006646839166824255
mp-532384,Dy2O7Ti2,-3.6395671104165994,0.0
mp-770409,Ge1O5Tm2,-3.2604973956249985,0.0
mp-27303,Ag3Na1O2,-0.7145907306752868,0.0
mp-626024,H2O4Se1,-1.103233227120535,0.0
mp-16855,K3O13Si2Ta3,-3.1522319329166675,0.0
mp-555311,S1Zn1,-1.0621645504086534,0.0
mp-19324,Ca2Mg1O6W1,-2.9958984210000006,0.0
mp-758157,H2N6Na4O13Ru1,-1.162979836750664,0.03779489932171059
mp-756018,Ba1Mg1O2,-2.9014346927083334,0.037790580000014895
mp-773020,Lu1O14P5,-2.816661316333333,0.001877284500005061
mp-684708,Er2S3,-2.32463829527083,0.0
mp-19202,Cr2Mg1O4,-2.6264571878571368,0.0
mp-770361,B1Li1O5V2,-2.6247709823611123,0.002146495416690344
mp-769611,Cr1Li4O8V3,-2.4680954273958333,0.0
mp-697030,H6Mg2Ru1,-0.4467078355555556,0.0
mp-557512,C4H4La1N1O8,-1.693853722777779,0.011285215308222105
mp-772318,Cr2Li2O7,-1.8484436079924236,0.011075124886345251
mp-18449,K2O3Zr1,-2.7857266241249996,0.0
mp-19335,Cr3K1O8,-2.0493293215624995,0.0
mp-4779,B4Li2O7,-2.805692409391025,0.0
mp-24729,Ga2H5O11P2Rb1,-2.1154329278826522,0.001052330521259494
mp-16035,Gd2O2Te1,-3.2861188763333318,0.0
mp-764048,Fe2Li4Ni3O16Sb3,-1.799834611904762,0.043158302079192926
mp-5455,K6O7Ti2,-2.4259294797222224,0.0
mp-720432,Ca9F41Ho1Na2Nd1Y5,-4.219737871624294,0.03920737949840617
mp-531952,Br7K1W3,-1.118721894636363,0.0
mp-776813,F4Li1Mn1,-2.9174496860440606,0.0
mp-505271,Ni1O3Sb1,-1.7930864011111096,0.707653796999999
mp-19522,O11P2W2,-2.3850286553611104,0.0
mp-21705,Ag1In3K2Se6,-0.981666272310763,0.0
mp-14628,O3Sn1Zn1,-1.92668164425,0.04116777299999832
mp-554432,F10O1Re1Sb1,-2.5374976407692316,0.0
mp-675286,Ca3N4U1,-1.5298863299999965,0.0
mp-771922,Ba3I9Y1,-1.9190473348076924,0.04822082788461575
mp-4764,O2Pr2Se1,-3.3418329241354146,0.0
mp-771611,Li5O8V4,-2.340821442156863,0.05047712549016167
mp-32891,S3Y2,-2.3403244467916666,0.0
mp-24097,H4Mg3O9Si2,-2.5838508829166664,0.0006351373040038607
mp-27281,H3Li1O2,-1.3807215038194443,0.0
mp-11147,Cu1Na5O2S1,-1.3142847082662839,0.0
mp-18471,O5Sr2U1,-3.6160914446354173,0.0
mp-5899,Al1Nd1O3,-3.6698885509999997,0.0
mp-13985,F6Li2Pd1,-2.3665910046296292,0.0
mp-625174,H5I1O6,-1.0031945989583335,0.01556840468749865
mp-766506,Cu1Li3S2,-1.178610263177081,0.0
mp-643451,Ba1H8Mg2Ru1,-0.5243009720833331,0.0
mp-27519,O3Se1,-0.3738167722656236,0.019213741093750736
mp-755404,Gd3O7Sb1,-3.3633945023863627,0.0
mp-23334,Bi2O5Te1,-1.3332750749999995,0.0
mp-2991,Cs2O4U1,-2.8826819707142874,0.0
mp-696315,H1N1Na1O2,-1.1158034845258613,0.09917881276427458
mp-644236,Cs2H4Mg1,-0.305995112401479,0.0015156097693532291
mp-752641,Lu3O7Ta1,-3.7591581303257597,0.02479733534091237
mp-24721,H1Rb1,-0.23546975937499992,0.0
mp-772436,Al1Fe1Li2O4,-2.429810575989582,0.016841030938335333
mp-771238,O6Te1Y2,-2.9712496516666658,0.0
mp-23265,Cl3Gd1,-2.5063139306249997,0.0
mp-643708,H2I1Li1O1,-1.3523279716666665,0.0
mp-754269,Nd3O7Sb1,-3.157625230681819,0.0
mp-753795,Bi1Li3O3,-1.872570833214286,0.0
mp-765499,F6Li3V1,-3.1269273675,0.0
mp-17161,Cd1K6O4,-1.2737887652272726,0.0
mp-5472,Cd2Nb2O7,-2.4515961993181805,0.005409513181816614
mp-767419,F6H2Na1O1P1,-2.548996938057732,0.021889019629814366
mp-41473,Cs1F5Ni1O1Ti1,-3.1127672500542793,0.0
mp-27767,Li6O7Si2,-2.7409881454999994,0.014586646000113508
mp-774753,Ga1Li5O4,-2.181225236416666,0.0
mp-768702,O9Ta2Zn4,-2.285156186977781,0.03834921133332614
mp-556405,C1F1La1N2,-1.922050301,0.0
mp-545544,Ba2Bi1O6Ta1,-2.9572597752499994,0.0
mp-675556,Er2O19Zr8,-3.770120755732758,0.0932778993103575
mp-676517,La3O10U2,-3.894663123999997,0.0
mp-569782,Br3C1Li1N2Sr2,-1.748164211759259,0.0
mp-757074,Ba1Ca2I6,-1.9510705288888888,0.029028926944444047
mp-632715,Ce1Cs3F6,-3.465578618396554,0.0
mp-697575,H4Rb2Zn1,-0.32515390035714326,0.0
mp-560558,Au1Cd1Cs1S2,-0.8551396651249888,0.000617331999996118
mp-4842,Al2S4Zn1,-1.1899538366071423,0.0
mp-27764,I2K4O9,-1.1676090596666673,0.0
mp-27927,Al1Nb1O4,-3.0259907966666666,0.0
mp-1217,K1Si1,-0.13730727343750004,0.0
mp-27845,Ca1O5Se2,-1.9153031429296874,0.0
mp-5928,Al2Cd1S4,-1.146683410178572,0.0
mp-27417,In1Li3O3,-2.0493524773809524,0.01048072297620019
mp-6388,B3Ca4O10Sm1,-3.3760179077777774,0.0
mp-28016,Ge9Li4O20,-2.156797865101011,0.015186872729119063
mp-770128,Cs6O7Ti2,-2.3942101422222226,0.0
mp-28955,B1Mg3N3,-1.0459833828571437,0.031190630178571155
mp-17062,Dy2O7Si2,-3.519590011969696,0.005217351136352668
mp-23598,F1I1O3S1,-1.5040192229166667,0.0
mp-769881,Cr1F6Li3,-3.1162853375000004,0.0
mp-680498,P1Rb1S6Ta1,-1.0883616853009268,0.0
mp-558846,As4Cs2O14Pd3,-1.540745967470014,0.0
mp-626778,H1Na1O1,-1.4567692837499997,0.0
mp-19089,Co1O4U1,-2.7040502775,0.0
mp-2030,Ru1S2,-0.6867098235416668,0.0
mp-643427,H2Mn1O5S1,-1.8019380661590043,0.0
mp-685295,Nb10O47Sr22,-3.1461033917457804,0.0763026856329154
mp-759876,Na5O5Sb1,-1.7451854822727275,0.0012377390909108499
mp-769614,Cr1Li4O8V3,-2.462363166145834,0.0
mp-759640,C1Cu1Li1O3,-1.654381351597222,0.04289334979173157
mp-13199,O6Te1Zn3,-1.7003549132500007,0.0
mp-559376,Ca1F1Na2O4P1,-3.025359863044608,0.0
mp-773444,Mg1O7V3,-2.560762861818181,0.0480980340909502
mp-556942,Ca2O4Si1,-3.4619251687499997,0.0
mp-13277,Ba1Li1P1,-0.9094072093253972,0.0
mp-698170,B5Ca2Cl1H2O10,-2.7650601401666663,0.004138943174929466
mp-510727,F1In1O3Te1,-1.9802233763888892,0.0
mp-36912,Cd1Pr2S4,-1.814123438154754,0.09704099321428927
mp-556061,Cs1F11Sb2,-2.7913171518165014,0.0
mp-676563,Cu2O11Ta4,-2.821692618014705,0.038938496470585865
mp-31507,Pb1Sb2Te4,-0.4435854766666663,0.009439732852336282
mp-28043,Ag1I5Tl3,-0.7229264810185209,0.025586663611111306
mp-643259,Cl1H3Li4O3,-1.8556603076893934,0.0
mp-776683,F5Fe1Li3,-2.861450863750001,0.04935666249995899
mp-29475,B1H2N1,-0.694240928229167,0.07637583812499948
mp-638150,K1P1Pb1S4,-0.9589195834047614,0.0
mp-680111,Cd1I2,-0.8710708133333335,0.0
mp-560613,Na2O4Te1,-1.815319636931444,0.0
mp-771833,Cl7La1Sr2,-2.809721622083333,0.030033165000000396
mp-753798,O3Rb2Sn1,-1.9238487018750003,0.0
mp-545529,Bi2Cl1Nd1O4,-2.4170489059374995,0.0
mp-37920,Ag1Au1S2,0.04333418359374619,0.0
mp-755312,Cu3Li5Nb2O10,-2.151121345583333,0.07703667750005394
mp-2517,Ca2Si1,-0.533168246666668,0.0
mp-4582,Nd1O3Rh1,-2.4959258002500007,0.0
mp-568785,Al3Cl12Na1Ni1,-1.8391901362576069,0.0
mp-777888,F3Fe1Li1,-2.7854023221666666,0.01993637349570001
mp-755646,Cu1Li1O1,-1.336002465277777,0.0
mp-19158,Mn3O6W1,-2.1347400061293116,0.0
mp-755731,O7Pb2Ta2,-2.6992308487499987,0.0
mp-20088,Na4O4Pb1,-1.6107656234674326,0.0
mp-694975,Ba3Fe1Ho1O9U1,-3.0179358728333314,0.17269639375022336
mp-12022,B4Hg1O7,-2.1611031073958338,0.0
mp-631378,As5Cs7In3Nb1,-0.6222168457812494,0.0
mp-769527,Co13Li2Mg1O28,-1.2410861473106072,0.028541856205503213
mp-768973,Ba2Cl7Y1,-2.7949210615000006,0.009044495750002568
mp-567551,C1Si1,-0.2035832803125004,0.0
mp-2251,Li3N1,-0.48250142218750014,0.0
mp-14128,F6Hf1K2,-3.724599704166666,0.0
mp-542136,Na3O3P1S1,-2.203995959045438,0.0
mp-559963,Al1Cl4N1S2,-1.0613291795312505,0.010304670995031628
mp-762996,F1Fe1O1,-2.039431786666667,0.040905479444460845
mp-14653,Ag1F12Sb2,-2.2163862783333332,0.0
mp-20316,P1Pb1Se3,-0.5984093650729164,0.0
mp-685194,Li4O12Ti5,-3.2038480783333334,0.0
mp-756914,B4Er2O9,-3.2857966036111113,0.03408376172224621
mp-672251,Br4Cs1Ga1,-1.4952629874999985,0.0
mp-573658,As2B1Cs3,-0.532176927083332,0.0
mp-757233,Gd2O7Zr2,-3.7861046931818176,0.006651203181830697
mp-17120,Al1Cs6K3Sb4,-0.4692434553343602,0.0
mp-554581,K1P2S7Sm1,-1.0640218167627156,0.0
mp-19300,La2Mo1O6,-3.178594089722223,0.0
mp-696347,H3Na1O5S1,-1.7085606955129307,0.008203190937765826
mp-761809,H1Ho1O9Rb1S2,-2.2385642983035714,0.0806103174988679
mp-560471,B2O6Pb1Zn2,-2.253114533030302,0.0
mp-772753,C1Li3O7P1Zn1,-2.3643046211263727,0.04260886778845109
mp-3716,Ni1Sb1Tb1,-0.9665415466666664,0.0
mp-17275,O4Sr1Y2,-3.65516057357143,0.0035804707143287018
mp-4393,Cs4O17U5,-3.3411799329028513,0.0
mp-776427,O2Zr1,-3.7264810316666677,0.0
mp-22919,Ag1I1,-0.4032569483333335,0.0
mp-17146,K2S5,-0.6998915505803568,0.0
mp-556653,As1Bi1Cd2O6,-1.6512441107499995,0.0
mp-759763,B8La26O51,-3.714334074583334,0.0
mp-752729,Ca1O4Tb2,-3.6387462294642847,0.049268304464273376
mp-5966,Cd2O4Sn1,-1.5515685878571435,0.0
mp-757901,Li1O4P1Sn1,-2.3988831397619053,0.005276800415974289
mp-18892,Ba1K1O4V1,-2.7791546936428566,0.0
mp-35647,O4Pt1Zn2,-1.2285842664285735,0.0
mp-557861,Ca1Li2O7Ta2,-3.184235017326388,0.0
mp-776642,F8Fe3Li2,-2.6862393693589746,0.023509696923007084
mp-29025,Br2Li5N1,-1.1736936515104164,0.0
mp-766324,Ba1Ca1I4,-1.9420398145833329,0.027401498749999753
mp-27241,Cl5K2Sb1,-1.8240331629375002,0.0
mp-772955,Ba2Cl7La1,-2.7630301915000017,0.01170147574999767
mp-17282,Se5Sr1Th2,-2.139048075351564,0.0
mp-20485,In1Se1,-0.742582154921875,0.0
mp-550893,Hf1O2,-3.831381913333336,0.0
mp-770671,Cr5Li4O16Sn3,-2.22932728922619,0.04959750726044275
mp-557231,F1K1O2Te1,-2.0941963236,0.0
mp-1767,O3Tm2,-4.03254097425,0.0
mp-13229,F6Gd1K3,-3.559596408675,0.0035444639999496984
mp-23145,Al3Cl1Na4O12Si3,-2.9460360635869547,0.0
mp-626855,Fe4H14O13,-1.3318232827419365,0.07472673379032194
mp-755559,Li1Nb1O3,-2.841769851166666,0.0
mp-776246,N2O1Zr2,-2.445926835500001,0.0
mp-774229,In1Mn2O5,-1.9174342330765084,0.034339775195310285
mp-567318,Sb1Se2Tl1,-0.5665772688802084,0.0
mp-17559,O5Ti1Y2,-3.760628625833334,0.0
mp-555489,B3Li1O14Y6,-3.5775708107638877,0.01240345736121995
mp-721011,Al1Cl2N33O19Pr20Si19,-2.267785864583332,0.0
mp-766258,O24Tm3Y13,-3.9317486035,0.0014790739218824456
mp-21452,O4Pb3,-1.1799892707142874,0.0
mp-756647,C1K2O7P1Y1,-2.7848599258125,0.01662526750034843
mp-3317,O3Rh1Sm1,-2.4292818409999994,0.0
mp-757434,Bi9Li1O26Si6,-2.382070636150795,0.029213557827393714
mp-768762,Ho2O6Te1,-3.0327634649074073,0.0
mp-752753,F1O2Sb1,-1.7251280543750003,0.008792512375057626
mp-760755,Al11K1O17,-3.3747197341982753,0.0
mp-776662,Cr1F1Li1O4P1,-2.679065787872023,0.0
mp-555932,Er3F10Rb1,-4.302387105178571,0.0
mp-28568,Cu1O2Rb3,-1.1482930189583318,0.0
mp-554518,C1Eu1O3,-2.3927444845000023,0.0
mp-766390,Bi1Li5S4,-1.2444428646666665,0.04447025599999943
mp-764759,Li6Mn5O12,-2.0990520702024,0.04255352448369674
mp-5241,Dy1P1S4,-1.2108011127876992,0.0
mp-18798,Mn2O5Sr2,-2.658874814329503,0.012999378524891685
mp-558281,Cr1F4Sr1,-3.5453726877777783,0.0
mp-569939,Ag1Bi2Cl1Se3,-0.7274216826711307,0.002885223214286446
mp-28932,F6O1Sn4,-2.208971366590909,0.000997794318198686
mp-28726,F4K1Y1,-4.005186231796297,0.0
mp-36381,P1S3Sn1,-0.3540162669808211,0.0
mp-1167,C1F4,-2.182874433500001,0.0
mp-27552,I3Pb1Tl1,-0.9203622346666667,0.011840651500000288
mp-2789,N1O2,-0.6828174266666664,0.0
mp-38125,Cd1Se4Sm2,-1.6905257627678563,0.10557888892857191
mp-766467,Cu1Li1S1,-0.8690843060416668,0.00457404319444817
mp-770542,Mn1O7P2,-2.323689663221675,0.0
mp-772151,Li2O9Ti4,-3.148037308333334,0.009861076294869046
mp-644514,Mn1O2,-1.8196594456992348,0.0
mp-19458,Ba1O15V10,-2.52208209985577,0.0
mp-28125,F8H11N1,-1.444421912749999,0.0
mp-10074,Ge1Se2,-0.5668286598958332,0.0
mp-561647,Cs2F4O1Te1,-2.616399462034842,0.0
mp-560046,Pt3S8Ta2,-1.0523781811538468,0.0
mp-675100,Nd2Pb1Se4,-1.748840563482142,0.02754490964286127