Material ID,Compound,Energy,Hull Distance
mp-17916,Cu1Ge1Se7Y3,-1.5405141251171877,0.013350533203249823
mp-755597,Ca2Ce1O4,-3.4363597328571416,0.02107280428575718
mp-3821,F6K2Pt1,-2.344315705833332,0.0
mp-672204,Ga3Ru1,-0.40038067437500047,0.0
mp-755660,Lu3O7Ta1,-3.794839533962124,0.02479733534091237
mp-767165,K2Li1S4V1,-1.4041556384791658,0.0
mp-686208,Li5N3Si1,-0.8706298930324073,0.0
mp-554223,As2O7Rb1Sc1,-2.3862822086363633,0.0
mp-555858,S1Zn1,-0.9109871717633936,0.0
mp-767778,Li2O10Si3V3,-2.744671178564815,0.02618029750035136
mp-510544,Nb2O9Sm2Sr1,-3.433396455535715,0.05967568894751908
mp-674981,Ag3I1S1,-0.2666068646250004,0.054318345000000434
mp-28510,Bi1Li3O3,-1.9651816778571418,0.0
mp-541879,Ge2Rb2S5,-0.9060715946180566,0.0
mp-673698,Cu2Hg1I4,-0.22464427428571426,0.0
mp-1536,K1Sb1,-0.5270346771250001,0.0
mp-690568,Bi4O11V2,-1.9352969816176473,0.0
mp-19116,Ca1Mo1O6Sr2,-2.916912489,0.0
mp-14794,Co1K6S4,-1.0904033529166695,0.037260280370366446
mp-1591,Al4C3,-0.09127430607142932,0.0
mp-555302,Cs1F3Fe1,-2.745330940752873,0.006068135750007286
mp-2646,Mg3Sb2,-0.42118603100000057,0.0
mp-771348,Fe17Li1O32Zn6,-1.658704415416666,0.10565859669645507
mp-30299,As1O2Rb1,-1.8665860131249992,0.0
mp-771325,Cu2Dy2O5,-2.600998872638888,0.040453257367625874
mp-27865,Cl3K1Mg1,-2.2607339500999997,0.002778058375752579
mp-17313,Al8Be1Mg3O16,-3.3727349867857135,0.0
mp-559557,B10Cs2Na2O17,-2.787861620786521,0.0
mp-770531,Mn1O7P2,-2.38374221583477,0.0
mp-698491,Al4C4Ca2Cl1H8Na1O20,-2.2977595669094826,0.0
mp-774723,C3Cu1H12N6O7S1,-0.8742372104999997,0.05912857554849786
mp-28789,Cu2Na4S3,-0.984474066731322,0.0
mp-541707,Al1K6Na3Sb4,-0.49623422590394106,0.0
mp-5513,S4Tl3V1,-0.7170387789062502,0.0
mp-39419,Cd1Nd1O7Sb1Ti1,-2.770118460984848,0.0
mp-10925,O1Pr2Se2,-2.7568557161875,0.004128087750046916
mp-558023,O11Rb2Sb4,-1.7318772375,0.0
mp-30315,B1Ca3N3,-1.238514797738095,0.0
mp-772430,Al1Fe1Li2O4,-2.475810527395832,0.016841030938335333
mp-32906,La2S3,-2.4880233699375,0.0
mp-774399,F3Li1Mn1,-2.968442153352874,0.018346049749996853
mp-12797,Ba1Be2O7Si2,-3.3074014213541667,0.0
mp-19017,Fe1Li1O4P1,-2.4809331852380945,0.0
mp-568525,Se5Sn1Sr2,-1.4674546543815108,0.0
mp-762032,Ba4Li4O44Ti19,-3.394775369037559,0.04578976526405668
mp-760405,B1Er1O3,-3.474839368083334,0.0
mp-754453,La1N1O2Ti1,-3.007632283166667,0.033488175254409926
mp-28243,Cl2Li1Rb1,-2.188113161458334,0.002750512500000024
mp-755358,Al1Lu1O3,-3.7408098848333324,0.02109659624997704
mp-22428,Ce1O3Sr1,-3.4586120934999998,0.008432650999998969
mp-12911,Ba2La1O6Ru1,-2.781185002749999,0.0
mp-704183,Li1Mo2O8P1,-2.255543473581349,0.04045593621049992
mp-4052,Mn3Rb2Se4,-0.9213093259075672,0.0
mp-777065,C1Mn1Na1O7P1,-2.174551985824191,0.0
mp-643564,Fe1H2O5S1,-1.683882148541667,0.0
mp-540866,C4Mg2Na6O16S1,-2.223351803819857,0.0
mp-558248,O9Pr1Ta3,-3.306273041820517,0.0
mp-29163,Ag2S3Te1,-0.07846885307291747,0.0
mp-764629,H2Na1O13Rb3V4,-2.2428084692991006,0.007948327173819358
mp-5709,O4P1Tl3,-1.7046765416220246,0.0
mp-15095,Ca3O9Si2Sn1,-3.1962896314999996,0.0
mp-12954,B1Cu1S2,-0.4372072057812506,0.0
mp-15074,Ir1P1Sr1,-1.0232614305238106,0.0
mp-772780,Be1C1K3O7P1,-2.4527540627756403,0.0825925457690066
mp-768197,Li5S4Sb1,-1.217954831916667,0.051351565499990134
mp-558130,Bi1Cl1Mn1S2,-0.947894032586207,0.014260039000000013
mp-769569,Li6Mg1Ni7O16,-1.451341191166666,0.03255360141675231
mp-17243,Cu1Pr3Se7Sn1,-1.5863280234505197,0.0
mp-13687,Ag1Cs2F6K1,-2.402970439052873,0.0
mp-568968,Hg1K2Se4Sn1,-0.9557141894218746,0.0
mp-36890,Bi3O7Ta1,-2.08726187375,0.1597453662499856
mp-770332,Bi1C1Na1O7S1,-1.8983771748981182,0.03920327232170157
mp-6539,O5P1Rb1Ti1,-3.038539595684524,0.0
mp-34584,N2O5Zr4,-3.128679596704546,0.019670516591017675
mp-623024,Cd1F6Ti1,-3.2788900110416668,0.0
mp-12457,Cu1Lu1S2,-1.6158502565624993,0.0
mp-7562,S4Ta1Tl3,-0.8018017985729173,0.0
mp-20212,Ba1Cu1O5Pr2,-2.9342737428703694,0.02379515166635413
mp-772665,Be1Cr1O4,-1.9789195075,0.0031669093753663446
mp-619575,Cl1F3,-0.9616449446875,0.0
mp-29873,Cd1Cl4Rb2,-1.9448342707142856,0.00796236190476028
mp-752922,Hf1Li8O6,-2.5103114101111115,0.0027599136666689597
mp-571169,Bi2Br1In1Se4,-0.7997652161718745,0.012345392604166117
mp-14926,F7Sc1Sr2,-4.24306132,0.006777715500001591
mp-570828,Al1Cl4Hg2Sb1,-1.074121185312503,0.0
mp-676456,Al5La2O24Sr6Ta3,-3.5309468603,0.0
mp-558480,F2K2O5P2,-2.7987496719469687,0.0
mp-17975,K1O4P1Sr1,-2.9315052841751696,0.0
mp-2652,O3Y2,-3.910085815250001,0.0
mp-776255,Li5S4Sb1,-1.1830069072916665,0.051351565499990134
mp-5418,Li6O7Zr2,-2.8634085275,0.0
mp-29498,Br2W1,-0.6478145219444463,0.0
mp-5707,As1Cs1F4,-2.7218895695258625,0.0
mp-18562,Na2Se5Si2,-0.8625569044791663,0.0
mp-541281,Ba1Ga1Nd1O4,-3.074934676785714,0.013938343845954953
mp-625641,Br1H9O4,-1.178659198928571,0.0
mp-14283,F7In1Sr2,-3.671771026500001,0.0
mp-11014,F4K2O1Te1,-2.6022950292083338,0.005367812657021798
mp-24043,H2O1,-1.0481710961111104,0.0
mp-756500,Ca1I6Sr2,-1.9114712800000002,0.02224016625499677
mp-570989,Cl5U1,-2.1325208345833335,0.0
mp-422,Be1S1,-1.2127890101562508,0.0
mp-771900,Al1Co1Li3O4,-2.2761753888888894,0.030065541964794877
mp-7041,Ca1Hg1O2,-2.095150210625,0.0
mp-18878,As2Fe1Li1O7,-1.8226713928030307,0.0
mp-773418,Li2Ni1O4Sn1,-1.9574348495833327,0.012626039062773708
mp-23909,C1Cl1H6N3O1,-0.6503240011458343,0.09269369935828653
mp-17518,N3Sr2Ta1,-1.3632823551805562,0.0
mp-37478,Ag1La5S8,-2.2291028033333333,0.02373078044642694
mp-18445,Ba2Mn1S3,-1.86277042590517,0.0
mp-753102,Bi4La2O9,-2.3794483343333344,0.013577560999757547
mp-567756,C1Cl1La2N3,-1.6287758253571443,0.0
mp-568628,Cl11Cs1Hg5,-0.8881367244117655,0.0
mp-559708,Be1F12Li6Zr1,-3.45707543275,0.012686911166673554
mp-554560,Be3Br1Li4O12P3,-2.850329134275362,0.0
mp-756922,Ho2O2S1,-3.5906973991249997,0.0
mp-756318,Al2Cl8Co1,-1.418629774090909,0.0
mp-605406,C4H5O15Rb1U2,-2.110920069861111,0.05598509857711828
mp-561017,Cs8O1Tl8,-0.3784019585294131,0.0
mp-558528,La2O6Ti1Zn1,-3.3960863223333333,0.04275838174994817
mp-641703,Li7P3S11,-1.0889439548908737,0.019855159245997372
mp-6648,B4K1Li1O7,-2.793559077,0.0
mp-19042,Ca3Mn2O7,-2.6480786439260044,0.016440876805553728
mp-754852,Ba1I4Sr1,-2.017863206666667,0.021835488333333746
mp-23361,Cl8Cr1Li5,-1.857038913095239,0.011372238333332976
mp-769254,As1Cu1Li2O4,-1.7777778023958337,0.09521290270847227
mp-754630,Ba1I4Sr1,-1.9690399952777782,0.021835488333333746
mp-5263,Ca4O9P2,-3.327116071361112,0.0
mp-2139,Ba1Ge2,-0.5895033379166676,0.0
mp-677234,Ce8Gd2O19,-3.7309578521551745,0.02842550293108902
mp-764346,Fe1Li2O4Si1,-2.5556516289583326,0.0
mp-4004,Ag5S4Sb1,-0.2979437475833329,0.013534364249999343
mp-755239,Ga2Hg1O4,-1.7695637807142854,0.03219456964285757
mp-776408,N1Nb2O5Y1,-2.9468641300000007,0.05965389583298691
mp-558118,Be1F2,-3.4775973002777776,0.0
mp-24547,H2O4Se1Zn1,-1.2302610022836535,0.020624165156259755
mp-767769,F5Li1V1,-3.088949438690477,0.001775361071415103
mp-28195,Ag2O3Si1,-1.7548100332638892,0.0398163162500893
mp-769634,C1Cr1Na3O7P1,-2.341029679749115,0.008588543234553141
mp-559514,Cl3N1Nd4S3,-2.4142456820454536,0.0
mp-771993,Fe9Li1O16Zn2,-1.6914122508333327,0.05701778557257115
mp-4547,La2O2Te1,-3.3874746968333342,0.0
mp-561375,Pr10S19,-2.0759997539691075,0.0
mp-772586,Cr2Li2O7,-1.8309175106060616,0.011075124886345251
mp-569653,Cl9P1Sn1,-0.8712688604978367,0.0
mp-764980,F5Li1Mn1,-2.6675140494663387,0.015138145505959853
mp-556627,Ge1K4S4,-1.2412232327777781,0.0
mp-763347,F1Li2O2V1,-2.654673161527778,0.006646839166824255
mp-557835,F1Tl1,-1.8697137312500018,0.0
mp-29304,Cl7In1Y2,-2.422722485583334,0.0
mp-4673,Hf1O3Sr1,-3.7227689949999982,0.0
mp-37722,B1H4K1,-0.45429709020833303,0.0
mp-601286,Cu1Pb1Se3Tb1,-1.2414657989496518,0.0
mp-756048,Er1O3Tb1,-3.8612359065416655,0.08866930249992606
mp-621924,Ba1Cd1F7Ga1,-3.168467009999999,0.0
mp-653973,K1O4P1Zn1,-2.5179199115595234,0.0
mp-768108,C1Fe1Na2O7P1,-2.242209350640565,0.0
mp-505794,Cl3H6N2Sc1,-1.2253251756249999,0.0
mp-755139,Bi1Li5S4,-1.2568571109166669,0.04447025599999943
mp-530722,Al2Mg1O4,-3.3673525814285714,0.0
mp-6368,Cs1F1O2S1,-2.1871270622112062,0.0
mp-570590,Bi1Br1Cd1Se2,-0.8685421409374985,0.026989084680049746
mp-20980,Na1Nd1O4Ti1,-3.3386960646264368,0.005910969018067139
mp-616255,In2S7Sn3,-0.7178446493229167,0.04102334781250031
mp-1020179,Na6O7Si2,-2.505445755120689,0.008623864416640478
mp-19266,Fe1O6Sr2W1,-2.6643656315833333,0.0
mp-558535,La10O1Se14,-2.4388180341625,0.0
mp-556798,Ag1Hg2O4P1,-1.5120194459374998,0.0
mp-23838,C1H2O7P1Zn2,-1.9147042901602567,0.0206255312262199
mp-32933,S3Tm2,-2.3173051326875025,0.0
mp-707218,Al1Ba3H1O4,-2.761334461944444,0.0
mp-684534,Li1Nb1O13P4,-2.677139952600251,0.01424542970192614
mp-772758,O7Sm2Zr2,-3.834872961249999,0.036643032869329
mp-31760,Fe1O6Sr2Ta1,-3.053668349583333,0.0
mp-19511,Fe1Li5O4,-2.040304657666667,0.0
mp-17833,Ba3Ge1O1,-1.4389395424999982,0.0
mp-4024,Ag1Dy1Te2,-1.0874185912499996,0.0
mp-5588,Ba1F6Si1,-3.8410251056249995,0.0
mp-755980,Ca1I4Sr1,-1.9342472190277775,0.0
mp-6686,F6In1K2Na1,-2.997417395755172,0.0
mp-553303,Cs1Cu3O2,-0.8294528966666661,0.0
mp-28211,Cl11Ir1S3,-0.3393104922291665,0.0
mp-554475,Cl1La1Nb2O6,-3.20374066525,0.03319110158073997
mp-27171,Hg2P2S7,-0.4903178437987014,0.0
mp-16870,Ba2Cd1Se3,-1.8011101320052088,0.0003059308333271578
mp-627418,Ge7H18O23,-1.5386182378385413,0.052990890468727514
mp-14476,Li1O2Rh1,-1.5465185664583325,0.0
mp-669311,In7Te10,-0.45887437941176507,0.0
mp-559200,Cd1In1S2,-0.7870932551785715,0.1900424655505074
mp-753721,F1Gd1O1,-4.121971784166668,0.0
mp-27926,As1Cl1F8,-1.598619197,0.0
mp-557355,O13P4Rb2Si1,-2.516347661970238,0.0
mp-758536,Al2H4K1O11P2,-2.3581359599208334,0.08813997436560647
mp-558059,F4Li1Mn1,-2.9356157335440614,0.0
mp-28150,Ba1Nb2O6,-3.2160989649999996,0.0
mp-753741,Cu1Li3S2,-1.142352020625,0.0
mp-7258,K4O4Sn1,-1.8336436279999997,0.0
mp-2247,Ag1N3,0.35419183833333534,0.3398230582150008
mp-645663,Br10Mo3Se7Te2,-0.9217160752154356,0.0
mp-4701,Cu1F6Sn1,-2.4247378924999996,0.0
mp-770552,Cr3Li4Ni3O16Ti2,-2.166667073571428,0.08458894033417279
mp-771059,Co3Li4Nb2O16Sn3,-2.2210619729761905,0.029485086517333566
mp-644827,Cl9P1Te1,-0.6861796870887453,0.0
mp-581955,Cs1O7Sb1Si2,-2.7285855894383486,0.0
mp-682,F1Na1,-2.9617591587499996,0.0
mp-777566,F4Li1V1,-3.188203500555556,0.0
mp-27308,Br1F8Sb1,-1.8432974812499991,0.0
mp-763217,Li1Ni1O4P1,-2.3121486632823127,0.0
mp-22524,Ce1O7P2,-3.1061259726785706,0.0
mp-684580,Ag1I1,-0.4892245058333322,0.0
mp-17886,Al2K2Sb3,-0.44567452175,0.0
mp-189,Ru1Si1,-0.6136040712500002,0.0
mp-19328,Na1O3W1,-2.104380734775861,0.05032516240885769
mp-12146,B2Ca1F8,-3.52126134439394,0.0
mp-557655,Gd1S2Tl1,-1.676364188906252,0.0
mp-14038,F6Na1Rb2Rh1,-2.641656980655172,0.0
mp-5933,Ba1O3Ti1,-3.3696838833333347,0.0
mp-753912,Ca1O4Tb2,-3.705684430714285,0.049268304464273376
mp-28663,Mg14O24Si5,-3.15747491116279,0.020356082965115097
mp-14070,Al1O2Rb1,-2.803627645312499,0.0
mp-764769,F7Li4V1,-3.1305433088194445,0.0747557744444407
mp-10429,La1O3Y1,-3.786044454125002,0.0386705304999154
mp-568742,Hg1I2,-0.4454401237499989,0.0
mp-558164,Ca1Hf4O9,-3.939558131607143,0.010087644464278915
mp-778009,B3Bi6Li1O14,-2.0770975532638882,0.038262596527990723
mp-13982,Cd1Cu2Ge1S4,-0.6552389484374999,0.0
mp-753401,O5Sc2Ti1,-3.6631582514583325,0.0
mp-562537,Ni3S8Ta2,-0.8508687924743583,0.0
mp-558160,C1F2Na1O3Y1,-3.0981920974335484,0.0
mp-567841,Be3P2,-0.23136165360714217,0.0
mp-775204,Li2O8V3W1,-2.4225543161904772,0.0
mp-567373,C1Cl1La1N2,-1.511243294500001,0.0
mp-504358,Cr6Li1O24P7,-2.527913695679824,0.020669054635452853
mp-667336,Cs4Te16Zr3,-1.0349958941429285,0.0
mp-758180,Cs1H1O7Si3,-2.904089909658764,0.002687868958359966
mp-557753,K3O4P1,-2.530168425799107,0.0
mp-770379,Ge1O5Tm2,-3.2671223950000012,0.0
mp-643061,H7Mg3Re1,-0.35774200909090903,0.0
mp-19368,O7Sr2V2,-2.916694090189394,0.0
mp-3056,Na1O2Tl1,-1.2404583075000026,0.0
mp-15502,Ba4P4Ti1,-1.2413768615079352,0.0
mp-27394,Cl3Cs1Sn1,-1.5794329630000021,0.0
mp-557914,Dy1O4Ta1,-3.59003054038889,0.0
mp-571347,Cu1Ge1Pr3Se7,-1.58664134970052,0.0
mp-36111,Li1Mg1P1,-0.8973628365476193,0.0
mp-3677,Mg1N2Si1,-1.3460087593750005,0.0
mp-675918,Cr1Li9N5,-0.7158146203333341,0.01047419041666681
mp-7476,Dy1O2Rb1,-3.0428600362499996,0.0
mp-14193,F6K2Th1,-3.9020088790000003,0.0
mp-777522,F3Fe1Li1,-2.798751308166666,0.01993637349570001
mp-770738,As1B1Na3O7Sb1,-2.109736660254199,0.055247692535164816
mp-569623,Br1Nb1Se1,-0.9298750626249983,0.0006921214583273105
mp-721328,As1Ca1H3O5,-1.9426644525,0.015008413642922136
mp-18513,Ba2Mn1Se3,-1.7726298141603827,0.0
mp-2695,Os1Sb2,-0.08399437833333441,0.0
mp-27736,P5Re2,-0.43215579855442293,0.0
mp-19201,Ca1Mn1O3,-2.5012014403362075,0.033702030666668034
mp-772676,O5Sr2W1,-2.8974120346875,0.005319286750001595
mp-675597,N1Na3O2,-0.9783373003591945,0.22599798833333326
mp-6978,Ho1O2Rb1,-3.05677487125,0.0
mp-774616,C3H5N5O1,-0.4372217650892856,0.060510009860424575
mp-12867,O3Sn1Sr1,-2.485952277999999,0.0
mp-763068,F7Fe4O1,-2.415742296770832,0.0461661200264268
mp-557047,Cr1Cs2F6Na1,-3.1000278960689664,0.0
mp-745107,Al2Ca2H1Mn1O13Si3,-3.115990662349138,0.007954912080233034
mp-763933,Cr1Fe3Li3O8,-1.9158256530000008,0.04731062588900485
mp-11714,C1Si1,-0.20355650125000047,0.0
mp-554951,C2Ga1H20N1O14S2,-1.2174014658125003,0.060132589379528055
mp-17207,Ge1S4Tl4,-0.6374771795370372,0.0
mp-23015,Br9Cs3Mo2,-1.4447020142857119,0.0108926363095205
mp-11695,Pd3Rb2S4,-0.8524417559722224,0.0
mp-6643,Ba1Dy2O5Zn1,-3.263878856527777,0.015489731018605192
mp-24389,Ca1H5O6P1,-2.080594760068681,0.015951367412998144
mp-557354,O11Te4Tm2,-2.061622031176472,0.0032565047794280385
mp-696396,C1H1Na1O3,-1.8478880008548846,0.0
mp-28286,F18Na3Sb5,-2.7833530978713528,0.006343243172555464
mp-540223,Li2Mn1O7P2,-2.6470941384486175,0.0
mp-18500,Au1K3Sn4,-0.343943312375,0.0
mp-756666,Ba1Ca1I4,-1.9399538600000004,0.027401498749999753
mp-676109,Cl6In1Li3,-1.8723554916666663,0.0
mp-772861,Ba1I6Sr2,-1.9922774388888886,0.010380434166666872
mp-766359,Ba1Ca1I4,-1.925130368541667,0.027401498749999753
mp-570668,La1Se2,-2.025149987708332,0.0
mp-756745,Ba1I5La1,-1.9186839628571428,0.026402626785713527
mp-14531,Na1Nb3O8,-2.93809887762931,0.017605288437397466
mp-676227,Nd2O7Th2,-4.033509520568182,0.06848314295455861
mp-553243,Bi2Br1O4Y1,-2.2364509181250014,0.0
mp-616601,Ba2In1O6Ru1,-2.2845694919166677,0.0
mp-753816,Mg1Na6O4,-1.671642401818182,0.010950832272728145
mp-15724,K1Na2Sb1,-0.47309160652586213,0.0
mp-28823,Ba4P3,-1.00485933625,0.0
mp-697047,H4Li3Rh1,-0.48679786437500017,0.0
mp-605166,C2Dy1H2K1O9S1,-2.147247844679688,0.024902970966789173
mp-626173,H1Ho1O2,-2.918620293437499,0.0
mp-774964,Cr1Li2O10P3,-2.6212838408184513,0.05946703770756567
mp-504943,H2K1Na1O7P2,-2.336602174647309,0.02231180294886588
mp-627632,H2O9Si4,-2.6044108254444494,0.04320918749999976
mp-755216,Bi1O3Tm1,-2.8240589135833325,0.029945425874950617
mp-35795,Bi1F5Pb1,-2.690409688928572,0.055001808928577436
mp-758810,Bi2Li1O11P3,-2.423496739691877,0.07646403122455701
mp-554203,Cl1Ga3Li4O12Si3,-2.735959669384058,0.0
mp-605344,H4O6Se1Zn1,-1.3165864474869793,0.017978727291655616
mp-558240,Al4F9K3O8P2,-3.381423929737179,0.0
mp-773170,Cr3O8Sb1,-1.9809094462499992,0.10256600601592177
mp-7441,K1P1,-0.4124461081666664,0.0
mp-18224,Ge2O7Rb6,-1.8489940781666652,0.0
mp-18973,Co1O5Se2,-1.2700813974609373,0.0
mp-667374,Al1Na1O4Si1,-3.143448196888341,0.0
mp-32309,Ni1O12Re2Sr4,-2.6230446340789477,0.010678293368407685
mp-37036,Bi2O3,-1.5487500220000059,0.0
mp-568379,In1K1Se4Sn1,-0.9416479674345233,0.0
mp-705497,Ga2H9N1O11P2,-1.7177161394214284,0.07342543218600213
mp-2883,O7Sm2Sn2,-2.996390598863636,0.0
mp-555837,O23Rb6Si10,-3.014121518621794,0.0
mp-571442,I3Y1,-1.7596055866666664,0.0
mp-669348,Cl9Nb1Te1,-1.4474924751515152,0.003235131174254911
mp-29090,Au6Rb4S5,-0.8172281581666738,0.0
mp-17633,Er2O4Se1Si1,-3.4012195299804695,0.026208258183567423
mp-556812,O2Si1,-2.9783942852777776,0.0
mp-771306,Dy2O13P4,-3.1385466211622814,0.005572241578916922
mp-770423,Mg2Mn3O8,-2.2456009749071617,0.0
mp-769653,Fe2Li2O5Ti1,-2.330511724750001,0.03040202249988546
mp-667338,N6Pb1,0.10931083119047139,0.09247114284095288
mp-20620,Ba2In1Nb1O6,-2.9570033301666654,0.0
mp-1019893,La3N11Si6,-1.5705272108125001,0.0
mp-22904,Ca1Cl2,-2.6454319783333333,0.0
mp-10474,F6Na1P1,-2.909268160372024,0.0
mp-764273,C1Li1Mn1Na2O7P1,-2.3709743506666032,0.020728825332834225
mp-676333,Ga11N1O15,-2.103727975925926,0.04377166851851918
mp-19000,O5P1V1,-2.4141675675680268,0.0
mp-720971,Al11Ca12Cl5O32Si3,-3.404296517936508,0.0
mp-554783,K1N3O11U1,-1.7024767933906242,0.0
mp-762268,Li3O6V2,-2.4156595420454554,0.08156741318181947
mp-17673,F5Lu3O2,-4.4045318689999995,0.0
mp-754061,C1Na3O7P1Sn1,-2.2116630152908296,0.03822340006373592
mp-6684,Cd1Na1O4P1,-2.386305046574595,0.0
mp-4387,O3Sr1Zr1,-3.620742870000001,0.0
mp-557264,O2Si1,-3.033119765,0.0
mp-759244,Li12Nb14O42Zn1,-2.87220456268116,0.010061465380434696
mp-27539,La2O5Re1,-3.0809561878125002,0.0
mp-772760,Dy2O7Zr2,-3.8174210910227244,0.08609121318179223
mp-11719,K4P2Zn1,-0.3966003683809523,0.0
mp-4340,O4P1Tb1,-3.3509872888293635,0.0
mp-554097,Cu1S7Si1Sm3,-1.8367880755729165,0.0
mp-640324,Cu1Pb1Se3Tm1,-1.2287362040885423,0.0
mp-22957,Cl1F1Sr1,-3.5420529466666673,0.0
mp-762679,O3Te1V1,-1.5394364395098046,0.6008765170713091
mp-10096,Ga1Na3P4Sr3,-0.7721807822917593,0.0
mp-757885,Li1O4P1Sn1,-2.390553426853741,0.005276800415974289
mp-772004,Co3Li3O8Te1,-1.7024581307777775,0.04106685858325676
mp-570132,B5I1Mg8N10,-1.120088917118056,0.02917596927328825
mp-581696,Cs1Cu3Lu2Se5,-1.3000232386097503,0.0
mp-18129,Ga2La2O1S6Zn1,-1.847278440208333,0.010337186142372149
mp-28022,Cd1Cl8Na6,-1.8917739246666665,0.0
mp-766505,F1H2O2Rb1,-1.6000681529166663,0.006848289583368583
mp-547792,K1O3Sb1,-1.827831800749999,0.0
mp-29718,Ag1Br7W3,-0.6281169929545481,0.0
mp-766422,Bi1Li3S4,-1.0234981296874999,0.06972273486606895
mp-504600,Cl1H4Na1O2,-1.4620764780064652,0.028056234062438623
mp-559346,K3Nb3O13Si2,-2.9913910601309524,0.00035836833160137377
mp-18136,C3O11Tl4U1,-2.0300015717543864,0.0
mp-560665,Br1La1O7Pb6,-1.884392075083333,0.0
mp-557539,F3Mo1,-2.5494447693750004,0.0
mp-558753,B2Bi1F1O4,-2.6252842228124997,0.0
mp-574279,In5Se7Tl1,-0.7507979103645834,0.02063119935897464
mp-766856,Cu1O3P1,-1.9006732511785707,0.022163300749900118
mp-669353,Cs2O4Te1,-1.7971182894252864,0.0
mp-766828,Li4O32Ti15,-3.27927514751634,0.08605513446761504
mp-37233,Cd1Nd2S4,-1.836576639999999,0.09634574928569124
mp-18903,Cd1O6Sr2W1,-2.5343918364999993,0.0
mp-541581,K1O3S1,-2.0789693101416673,0.0007258996047578847
mp-770905,As1C1Li1Mn1O7,-1.8314094171603974,0.04281572272769649
mp-18998,Mn3O10Sr4,-2.5820052428701814,0.0009891976961552353
mp-13907,Cd1F6Sn1,-2.602854664375001,0.0
mp-28693,Al3I1Te3,-0.5378778557142857,0.0
mp-1019809,B3Be2K1O7,-2.88938717151923,0.000986746025611423
mp-756392,Cu1Li1O5Si2,-2.6084229018981486,0.10204928416663567
mp-24426,H2Hg1O5Se1,-1.0785234852604182,0.0
mp-756683,Bi1Hf1O4,-2.728648744166666,0.019980563749963192
mp-27537,Na2O4Te1,-1.6064324014285714,0.0
mp-765677,Li6O12Sb1V5,-2.3234061716666665,0.0921692855555613
mp-770218,In2O4Zn1,-1.870078042142857,0.029411925714288602
mp-6712,Ge1Lu1Na1O4,-2.9068134755788178,0.0
mp-554623,Cl2O7Sm2Ta2,-3.4454528054807687,0.0
mp-766370,Ce1O20Zr9,-3.7802756330000005,0.04686658390702405
mp-768072,C1Mn1Na1O7P1,-2.1708775005866543,0.0
mp-754798,Bi2O6Se1,-1.344780935815972,0.09594635333334899
mp-556665,Bi1P2S7Tl1,-0.6452944041017313,0.0
mp-770528,Li5Mn1O4,-2.0007118825847696,0.03741085399999093
mp-557268,Al1K1Li4O4,-2.4086624436833324,0.0
mp-24440,H18Na3O9S4Sb1,-1.2082897783325117,0.00609221338096871
mp-13868,F4Pd1,-1.3225475830000009,0.0
mp-625583,Br1H7O3,-1.141328896022727,0.01610049949147132
mp-675524,Cl3Cs1Pb1,-1.8861527115862067,0.0
mp-16108,Cs3N11P6,-0.8156736347053581,0.0
mp-18853,Ag1O6Tl1V2,-1.8942363445,0.0
mp-667295,Br13Cd3Cs7,-1.8126778665442276,0.0
mp-558490,Cl1O8Se2Tb3,-2.812783028727677,0.0
mp-643697,H5Mn1Rb3,-0.16384171407566978,0.0031568150278930623
mp-7500,Na4O4Si1,-2.3093092144444447,0.0
mp-15845,Li4N2Sr1,-0.5408831642857146,0.0
mp-17980,K2Mo1S4,-1.2215729969285718,0.0