Material ID,Compound,Energy,Hull Distance
mp-556047,Br5C1K2O1Os1,-1.3539288967249994,0.0
mp-557103,B5Cl1O9Pb2,-2.564971605563726,0.0
mp-530953,Ho2O5Ti1,-3.774019354635417,0.0
mp-570791,C1Si1,-0.3044609459868438,0.0
mp-1565,O2Zr1,-3.7317295583333348,0.0
mp-540578,Cl4Cs2Zn1,-1.9032678335714297,0.0
mp-6037,Ba2O6Sb1Sm1,-3.038140461,0.0
mp-541025,C1Ca3H30O25S1Si1,-1.6907455993442617,0.017533589713028118
mp-754211,La2O4Sr1,-3.5996313502380946,0.048968965000003806
mp-540439,Mn1O3P1,-2.468993097052388,0.32240412843623895
mp-758829,F8Nb2O1,-3.3154692146590903,0.012495677045248758
mp-553907,Ag1O2Rb3,-1.126402233715277,0.0
mp-767636,F1Li1Mn2O3,-2.271233806135057,0.033411719017419524
mp-770686,Al2Li3Mn1O6,-2.703259860869253,0.04118824791652701
mp-18469,Mg1O7P2Sr1,-3.115683752207791,0.0
mp-777151,F7Fe2Li1,-2.682661678583333,0.008919222611102739
mp-11606,Cu1Ho2K1S4,-1.9093884469375002,0.0
mp-1019740,B3Ga1N4,-0.8605145143749997,0.3985605193749995
mp-557130,Cl2O3Te1Zn2,-1.6237291920833337,0.0
mp-554160,Cu1K2O7P2,-2.4015219380238086,0.0
mp-767679,Li8Mn3O12Ti1,-2.2935192634913784,0.08763499812529603
mp-505700,In1K1Se2,-1.13291374277604,0.0
mp-504946,Nb2O15P4,-2.7676244180753975,0.009462804142872625
mp-28126,Ge1K2Te4,-0.7841297337380949,0.0
mp-23355,Au1Cl4P1,-0.6611671746626987,0.0
mp-556442,F4O5Tc2,-1.7926310300000006,0.0
mp-761568,Co1O3Rb2,-1.4566129002083337,0.0
mp-621964,Bi1K2Rb1Se3,-1.1675879493616068,0.0
mp-504457,Ba1O13Ti6,-3.3538156305000015,0.010627040406216537
mp-756458,Al1Er1O3,-3.76412369675,0.017959491249956726
mp-1019589,Ce3O16Zr5,-3.811886073958332,0.04634118979169107
mp-540950,Ba3O9Sr1Ta2,-3.4066398506944457,0.0
mp-11718,F1Rb1,-2.8745384749999996,0.0
mp-773197,Cr4Li2O13,-1.691686479166667,0.013997742171054628
mp-2964,N1Na1O2,-1.2261921065948274,0.0
mp-6793,Ba1La2O5Zn1,-3.1910370093055556,0.01337374129622483
mp-573376,C1Cl2Lu2,-1.8180495221666675,0.0
mp-755340,O2Se1Tb2,-3.4817661161354168,0.0
mp-753783,In1Li5O4,-2.014459588166666,0.014512615500001047
mp-764374,F8Li2Mn4O1,-2.8094150743927204,0.06943598399987157
mp-32383,Li2Ni1O7P2,-2.4851336469543637,0.0058075387504915215
mp-677192,H5K4O16P1S3,-2.026409214127873,0.0
mp-4135,O3P1Rb1,-2.4744142823452377,0.0
mp-648072,Na1O3P1,-2.5838678362044325,0.0
mp-754505,N1O2Sr1Ta1,-2.732367276133334,0.0
mp-22876,Cs1I3,-1.1538162817887934,0.0
mp-510367,Fe2O7P2,-2.3534151739015154,0.0
mp-753611,Cl3O1P1,-1.153829489595239,0.0
mp-23571,Ba4Bi3K1O1,-1.3188919433055557,0.0
mp-641010,La4N2Te3,-1.9379683838888866,0.0
mp-775869,Cr5Li4O12Sb1,-2.2867077590151514,0.07276795829525443
mp-1016820,Mg1O3Sn1,-1.8732695162500002,0.0032530724999880077
mp-530546,O2Si1,-3.034240961419755,0.0
mp-679984,Cl10Cs4O1Ru2,-1.7118253513514199,0.0
mp-10851,O2Si1,-3.036744667222223,0.0
mp-406,Cd1Te1,-0.5607400050000031,0.0
mp-12647,Nb1O4Tb1,-3.4044784066666645,0.0
mp-558842,B1O17P2Sm7,-3.613983427021606,0.004448061018538641
mp-772842,Ge2Na2O5,-2.1199905900287357,0.00927495892854561
mp-673168,O2Si1,-2.5872945180555558,0.0
mp-758281,B2H1O9P2Rb1,-2.6201244967500004,0.0
mp-705861,Al11Na1O48Rb10Si13,-3.069231424414208,0.1191678259044008
mp-707227,H3K5O14S5,-1.8364561058564808,0.08331196067315558
mp-23611,Ba1Bi2O9Ta2,-2.7917514620535715,0.029960441600947667
mp-30302,Br1Hf1N1,-2.005888592916667,0.0
mp-7288,O2S1Sc2,-3.3313449075625003,0.0
mp-11007,Ca1P1Se3,-1.0519848980327395,0.0
mp-30986,O9S2Zn3,-1.5945214764732145,0.0
mp-560066,F5O2S1Sb1,-2.2584344559027776,0.036885600555479355
mp-2292,La2O3,-3.738267325749999,0.0
mp-679975,Ga1K1O2,-2.161521170718749,0.0
mp-4789,O3Pr1Rh1,-2.474946942250001,0.0
mp-5039,K1O3P1,-2.6910597875166657,0.0
mp-774371,F10Li4Mn3,-2.9778189701250843,0.03829552035311762
mp-1020109,Li1Mg3O11P3,-2.970339676097882,0.0
mp-556689,F5K1Zr1,-3.807335949595238,0.0
mp-4759,O8Te3Zr1,-1.8011140041666682,0.0
mp-18743,Ca1Mn1O7P2,-2.9025948964406996,0.0
mp-752404,Ba2O7Sb2,-2.464068822840908,0.03778066727277976
mp-768402,Ba3Br12Y2,-2.4589087372549026,0.05638287397058949
mp-28319,I2Pt1,-0.4495659650000044,0.0
mp-561474,K3Li1O4Si1,-2.43854622387037,0.0
mp-7444,Rb1Sb1,-0.515125888125,0.0
mp-703550,H2Li1O5P1Zn1,-2.1428236660476188,0.021657581875329512
mp-28017,Na8O14Ti5,-2.76999558919753,0.0
mp-531530,Al2Mg1O4,-3.3510601442857135,0.0
mp-29288,Ge1I3Tl1,-0.7168541816666678,0.01420937050000024
mp-766207,Nb2O17Zr6,-3.5569321999500003,0.05188048045000073
mp-541986,H4K2La1N5O17,-1.4366472137844823,0.009465334137928738
mp-772869,In1O19Ta7,-2.9481663128271616,0.03677319759258911
mp-769997,La2O9Ti3,-3.638617059196428,0.03712931339289024
mp-12433,N1Na1Sn1,-0.2016176021839081,0.05920562444444436
mp-30303,Bi4O7,-1.257891520454543,0.0
mp-758063,Li1O7P2Ti1,-2.8153594637229435,0.055843307886368106
mp-558616,O7P2Sr1Zn1,-2.8472606622348478,0.0
mp-770887,Be1Cr1O4,-2.061262979583333,0.0031669093753663446
mp-30187,Ga2O11Te4,-1.3955838185294136,0.008775441470595273
mp-39288,Ba1La1Mg1Nb1O6,-3.3104842485,0.0904104103357561
mp-647813,Cr1Cs2O4,-2.1592749210714266,0.0
mp-36582,H1Na1S1,-0.8080971421875004,0.0
mp-557019,Cl2Er1O3Rb1Se1,-2.4333358640429683,0.0
mp-559933,Ba3Cl2In2O5,-2.577283345069444,0.005273220279006156
mp-585305,Bi3Li9O29P8,-2.5728832448044217,0.04691041032329543
mp-568062,Dy1Se2Tl1,-1.6116100182812474,0.0
mp-29232,F10Pb3Zr1,-3.1061881025000013,0.008433613571249563
mp-23752,Cs2H4Mg1,-0.31837218571428544,0.0015156097693532291
mp-652479,Li1O4P1Zn1,-2.5427959314073125,0.0
mp-18832,F3K2O2V1,-2.8040540935625,0.0
mp-699403,Ba1Cr3La3O12Ti1,-3.239776118666665,0.026279704126520188
mp-676527,H5Na4O16P1Se3,-1.6452658545369465,0.006958409394464371
mp-23038,Br3Cs1V1,-1.634958496931036,0.0
mp-6168,Cu1K3Nb2Se12,-1.0212700133124994,0.0
mp-20343,Au1Na1O2,-1.0867786485129312,0.0
mp-777472,F4Fe1Li1,-2.7345426251388893,0.002276242685136154
mp-22859,Hg1I1,-0.37602504624999966,0.0
mp-28276,Br5K2Pr1,-2.2588437595,0.0
mp-14836,O7Pr4Se3Si2,-3.1686269024186187,0.0
mp-1323,Al1F3,-3.8537772242187494,0.0
mp-626256,H3N1O4,-0.7027882968750001,0.0
mp-504806,K2Li14O14Pb3,-1.9057361074595953,0.0
mp-754725,Cd3O6U1,-2.1122599975000016,0.01474881899999545
mp-1019529,Al10B12Ba8O41,-3.248696258433099,0.0
mp-621612,Ag1Br5Pb2,-1.1528409708333331,0.02003962499999956
mp-768218,C1Li2O7P1Tm1,-2.793774807118055,0.09199973333402471
mp-555909,Cl3O10Se2Tb5,-3.0269483086510407,0.0
mp-626083,H2O5Si2,-2.5603107070833335,0.03544379361110946
mp-769610,Ca5O15Ta4,-3.4365520073437508,0.049461686211436394
mp-542545,As1K3Nb2Se11,-1.0265097043988978,0.0
mp-29743,O14Sr5U3,-3.6266600736363612,0.0
mp-755835,B2Bi1Li1O5,-2.394659400601852,0.044938826246124504
mp-769394,Ba4O9Ta2,-3.2808024545833336,0.0
mp-559691,Al2Ca2O7Si1,-3.443800639270833,0.00023976270836515803
mp-27821,Ag3P11,-0.04616663662414818,0.0
mp-23202,I1In1,-0.6814887974999997,0.0
mp-6591,Al1F6Li1Sr1,-3.878162155,0.0
mp-704220,Fe1O4P1,-2.3075662586111116,0.0
mp-561550,Ag3B1O3,-1.0443009485714267,0.015488843616164871
mp-758100,Cu1Li1O4P1,-2.1583839275680257,0.042708045358219086
mp-757800,C1Cu1Li1O3,-1.6386300216666658,0.04289334979173157
mp-19166,Ni1O6Pt1Sr3,-2.271855186590908,0.0
mp-768663,Bi1C1Na3O7Si1,-2.2850070418567627,0.0
mp-35236,Ga2Ni1O4,-2.0110845849999994,0.0
mp-556771,Nd2O7Si2,-3.4749197519318114,0.0
mp-753942,Ba1Br11Y3,-2.324019397333333,0.09936802333333385
mp-759821,F5O2Sb3,-2.3462709564999997,0.0
mp-690508,Mn4O9Ta2,-2.657047661592719,0.0
mp-628782,Cl1O12Pb5V3,-2.058798069047618,0.0
mp-27700,Br2O5Sb4,-1.6333749335227266,0.0
mp-559608,K3Nd1O17Si7,-3.185981735098214,0.0
mp-24798,B12Cl1H12Rb3,-0.5070865015178576,0.005666317857142048
mp-6782,Li2O6Te1Zr1,-2.4940832798333332,0.012371226501704058
mp-5962,As1Mg1Na1,-0.636396012183908,0.0
mp-25571,Mo1O2,-1.7715081958333332,0.0
mp-690435,Li7Mn11O24,-2.0241199412041597,0.038748931259930716
mp-19363,Hg1Mo1O4,-1.5419117625000005,0.0
mp-3813,Ba2S4Zr1,-2.17303885142857,0.0009864969643170898
mp-752711,Ba1I6Sr2,-1.967484565277778,0.010380434166666872
mp-561189,O23Rb6Si10,-3.006299071185898,0.0
mp-773453,C1Fe1K2O7P1,-2.248210012011904,0.0
mp-27891,Bi2O2S1,-1.3591682751249992,0.0
mp-19178,Ag1Co1O2,-1.0151224960416663,0.0
mp-16847,K3Na2P3Sn1,-0.39689223745593893,0.0
mp-559808,Cs3O4P1,-2.471603444640804,0.0
mp-28179,Cl6Na1Ta1,-1.9283840726515797,0.0
mp-772750,C1Li3Mg1O7P1,-2.58178352304945,0.045517963460895317
mp-504474,H1O2Tb1,-2.912987150625,0.0
mp-18902,Li2O4W1,-2.3339987102380944,0.0
mp-23116,Bi1Cu1O1Se1,-0.9635655690234373,0.0
mp-569028,Br6Rb2Sn1,-1.4663459447222256,0.0
mp-774335,O7P2Sn2,-2.322563205833333,0.0
mp-11703,K1S2Sb1,-0.8523867423437501,0.0
mp-650442,Ag1Te2Tl3,-0.3167354091666728,0.0
mp-7768,N2Se1Th2,-2.1728141944687507,0.0
mp-555280,S1Zn1,-1.0511780023958337,0.0
mp-556377,Ba17Dy16O57Pt4Zn8,-2.989826350085785,0.0018749857525963262
mp-626264,Ba1H8O5,-1.369029375925927,0.0
mp-560131,O2Si1,-2.954044944305558,0.0
mp-770856,Cr1Li2Mn1O4,-2.261025917762213,0.007948847499795075
mp-721013,Ga1H4N1O8P2Zn1,-1.9538758949579829,0.008776750811218856
mp-706325,Ca1Dy1Mn1O6Sn1,-2.8163863759597705,0.05266085749860849
mp-669564,Br3Cs1Re6S8,-1.0379413180363994,0.0037098393055503306
mp-754711,Nb2O7Pb2,-2.493126916022727,0.05198531409088664
mp-3982,Cu1K1O2,-1.180905207187501,0.0
mp-726,O2Se1,-0.7235861334375002,0.0
mp-723044,Cl5H12N3Zn1,-0.8888514564285719,0.0
mp-758413,Cd1Na2O2,-1.4381854333017237,0.0
mp-557505,K1O11P3U1,-2.9116344917142847,0.0
mp-541846,O9P4,-2.0411659972619045,0.007630105818679366
mp-571305,Cl3Cu1Rb1,-1.4628043029999998,0.0
mp-569484,Cl9Cs3Ti2,-2.077064490059523,0.0
mp-754019,Na4Np1O5,-2.4980136693749984,0.0
mp-558706,Ga3Rb1S5,-1.0134122142013888,0.0
mp-776816,F5Fe1Li2,-2.838331895833334,0.00872496902793074
mp-29978,Al2F16Sr5,-4.118833869057971,0.0005371313043603411
mp-556085,Li1Rb2S4Ta1,-1.513459984770833,0.0
mp-766,As2Ru1,-0.4567363066666677,0.0
mp-23025,Cl1La1O1,-3.500921294166666,0.0
mp-27301,Au3Cl8Rb3,-1.3933968973214286,0.0
mp-570594,Cu1Se7Sm3Sn1,-1.568526409700521,0.008138024224032167
mp-5881,Co1S1Sb1,-0.37020566177083464,0.0
mp-5001,B1Li3N2,-1.0067859029166673,0.0
mp-22858,I1Tl1,-0.8906715241666698,0.0
mp-21872,Lu1O3Pr1,-3.91773439725,0.012918208374875917
mp-560512,Be1Eu1O5Sm2,-3.52442828138889,0.002618927638893117
mp-555026,Al1F3,-3.852356346124999,0.0
mp-645743,Ag1O5Te1V1,-1.6433489793229157,0.0113569672881777
mp-18373,O5Se2Zn1,-1.3701889993359417,0.0
mp-569348,Br4Ga1Tl1,-1.3239798949305557,0.0
mp-568018,Rb1Sb2,-0.4041293704166691,0.0
mp-720391,B1F4H4N1,-1.9707657491666672,0.0
mp-30293,Ge1Se4Sr2,-1.5707055491964432,0.0
mp-638206,C1Cl7N4P3,-0.8157840949999998,0.02301841080508223
mp-540728,K2O7Zn6,-1.6126748511666675,0.012473235333371472
mp-559917,Cl5N1O1P2,-1.2946800692129632,0.013645228875493723
mp-531064,Br7K1Mo3,-1.2790077131136364,0.0
mp-770359,As1O4Ta1,-2.5849730970833327,0.039362991249743594
mp-580886,I1N1Zr1,-1.6074841483333333,0.0
mp-1020025,B3Li1O5,-2.769920368425925,0.00729520787037943
mp-16903,F5Sb1Sr1,-3.2608451235714284,0.0
mp-754204,Gd1Li1O2,-3.1739709139583345,0.0
mp-23931,H2Li1O3P1,-1.9619939143452387,0.0006862603060291406
mp-775922,N1Nb3O7Sr1,-2.837534598958334,0.08065076979141021
mp-705894,Mo3O25P6Rb1Si2,-1.598421804942084,1.0706369477061817
mp-647218,O11P2Re2,-2.3017474111190483,0.0
mp-777919,Co1Na3O3,-1.4971843932142852,0.0
mp-554420,O5Si1Y2,-3.7534685250000006,0.0
mp-769316,F18Li5Nb3O1,-3.2517135333487657,0.08696444274987677
mp-772876,Ba1I6Sr2,-2.0083395739814813,0.010380434166666872
mp-567583,Cl6Cs1Sb1,-1.5401270822413795,0.0
mp-15155,Na2O10Sm2Ti3,-3.35605925591785,0.05163122244077263
mp-2981,Ca1O3Te1,-2.4002999150277775,0.0
mp-20011,Na1O3Sb1,-1.7878922960000012,0.0
mp-556369,Cd1Hg2O6Se1,-1.067895062734376,0.0
mp-776343,N2W1,-0.27670568437500265,0.028671184603334954
mp-27843,Ge3O8Zn2,-1.798144111923076,0.0018808258974366127
mp-23656,Cl1Ga3Na4O12Si3,-2.686353078856822,0.0
mp-625663,H1O2Sc1,-2.824721932187499,0.0
mp-3405,Al11Na1O17,-3.3618118625966114,0.0
mp-4006,Er1O4P1,-3.5095004007738093,0.0
mp-697921,H8Mg5O9,-2.1047664244886364,0.008792099999990845
mp-18262,Ag1Ho1S2,-1.54170235515625,0.0
mp-568790,As11Ca14Ga1,-1.1437299875000007,0.0
mp-774455,H3Na4O11P3,-2.3426985999979473,0.008285003393190155
mp-33775,Ag1La5Se8,-2.0981419873214286,0.017757755178571952
mp-19014,Cd1O6Sr2W1,-2.6159787844999998,0.0
mp-560863,O7Se2Th1,-2.153214428593749,0.0
mp-5967,Co1Sb1Ti1,-0.6587187822222234,0.0
mp-557319,C4H8In1N1O10,-1.349402471215278,0.028014704340308505
mp-769466,Ge2O7Y2,-3.038307775871212,0.0
mp-570226,Cu1Ge1Se7Sm3,-1.5711496192838534,0.0
mp-28995,Cu4P8Si1,-0.17165926029304046,0.0
mp-766237,Gd3O24Y13,-3.88089083175,0.0006522288124997999
mp-15081,Se3Sm2,-2.1980478374374997,0.0
mp-23170,I1O2,-0.7142040104166666,0.010598547666666422
mp-776741,Li2Mn3O8Sb1,-2.0786919386042695,0.0
mp-18596,Ca2Ge2O7Zn1,-2.563101890208332,0.02652434138918025
mp-5394,F1La1S1,-3.4534001451041667,0.0
mp-30537,O14P5Tb1,-2.8198694116190466,0.0
mp-19049,Ba1Mo2O9Te1,-2.150592575128206,0.01189277495184517
mp-625836,H2O3Sr1,-0.9973312722727282,0.3125125097916695
mp-1019563,Ca2O4Si1,-3.2447578585714285,0.0
mp-722262,B3Ca1H3O7,-2.4929703181250003,0.0
mp-33449,Ag1S8Tb5,-2.115432913690476,0.03001347800268864
mp-27686,Cd2O7P2,-2.348475007992423,0.0
mp-776608,Ca2N2O11Ti6,-3.154486195535714,0.05897123702686848
mp-558050,F6Mn1Na1Rb2,-2.9886530654482764,0.0
mp-770496,Mg2Mn3O7,-2.3106308004202583,0.039326769583263754
mp-762293,Co1Li1O4Si1,-2.287325238333333,0.04657210197674796
mp-776532,Hf1O2,-3.877981415000003,0.0
mp-17401,Au1Rb3Sn4,-0.3368500484374999,0.0
mp-22212,Na1O3Sb1,-1.7511339280000016,0.0
mp-558775,Al3F19Pb5,-3.2073197173148147,0.0019431151388442072
mp-36738,Co1Fe2O4,-1.4652167202380948,0.0
mp-27628,Cl2Te3,-0.3329571455000007,0.013467008874999919
mp-567542,I2Pb1,-0.9548443524999994,0.0
mp-772265,Mn1O4P1,-2.408546390845648,0.0
mp-777514,O3Y2,-3.819859498000001,0.0
mp-29368,O9Ta2Th2,-3.605936184397439,0.031098304423079634
mp-757688,Ba1Nb8O14,-2.864378158804348,0.0
mp-557686,F6V1Zr1,-3.6484518800000005,0.0
mp-28892,H4N3P1,-0.5136750288541663,0.0
mp-557133,Cs2F6K1Mo1,-2.9910909453862073,0.0
mp-756544,La1Li1O2,-3.1817048052083328,0.016473926249919835
mp-559738,Cl5N1S1Sb1,-0.7944795787499999,0.09583677817123104
mp-28603,Li1Na1Se1,-1.3719808060763878,0.0
mp-17960,Ba1O4Sm2,-3.479395143214288,0.0
mp-753425,C1Cu1Li1O3,-1.6785335297222221,0.04289334979173157
mp-584134,Bi1Li1O7P2,-2.5177464319318172,0.008196213030155648
mp-21577,In1Na3P2,-0.5298573299503969,0.0
mp-29362,Cl4Cu1Ga1,-1.025192511666667,0.0
mp-29594,B4La5N9,-1.5598190348148142,0.004232492407407899
mp-10086,F1S1Y1,-3.332555401770835,0.0
mp-27792,K2O16S5,-1.8648386768260863,0.0
mp-3050,Al5O12Y3,-3.6825308955,0.0
mp-4117,Li2O5Si2,-3.0135219287962958,0.0
mp-2542,Be1O1,-3.103491949375,0.0
mp-19344,Cr2Ni1O4,-2.0314309178571426,0.024221788276431004
mp-694964,Al3Mn1Na4O16Si3,-2.7637538447573435,0.0008856671718507203
mp-505139,H2O6S1Ti1,-2.157244214583333,0.003659531399286564
mp-37727,Er10O27Ti6,-3.661253501075581,0.2125686587210885
mp-768604,Cl5La1Sr1,-2.660128851428575,0.04997082071429101
mp-571341,As4Cl7Hg6In1,-0.7407255144444443,0.0
mp-766463,B4Ga1Na3O9,-2.635943808576741,0.0
mp-756365,Ca1Ce1O3,-3.489064255999989,0.059195941499937274
mp-754897,Ba1O4Tl2,-1.4351751646428608,0.0
mp-569203,Bi2I9Tl3,-0.8421649489285714,0.008738896785713888
mp-675681,Ba4Er3F17,-4.340021368854167,0.0007746614583255725
mp-1014244,N2Zn1Zr1,-1.155319141875001,0.0
mp-556400,Cs2K2O5Te1,-1.7889916277278737,0.0
mp-625238,H4O9Re2,-1.7094090069166679,0.026356826583330436
mp-6569,Hg1K3N5O11,-1.1002256220874997,0.06497071582145733
mp-19302,Ca1Na1O4V1,-2.772603083078818,0.0
mp-5996,Na2O9Si2Ti2,-3.163813267734675,0.0
mp-4252,P1S3Sn1,-0.3996262967827377,0.0
mp-1019510,Al1O4P1,-3.111173798159722,0.0
mp-558585,Cl1Hg3O4P1,-1.480947533425926,0.02406233712960078
mp-768139,Li8S1Sb2,-0.8288118631628788,0.0769896190909094
mp-771255,Cs4O4Si1,-2.141327991666666,0.0
mp-34898,N2O5Zr4,-3.116769805,0.019670516591017675
mp-1016197,As2Mg1Si1,-0.4164106362500011,6.468753471755573e-05
mp-714911,O5V3,-2.52048555234375,0.0
mp-675103,Bi2O11Sr6,-2.467565710328947,0.07976108754386502
mp-677217,Mg1Mo3S4,-1.0496933090625005,0.04858569874999641
mp-764328,Mn7Na5O16,-1.9085736690147783,0.02962909351805441
mp-754153,Br1H2Li1O1,-1.5216593449166673,0.0
mp-10935,Er1F1Na1O4P1,-3.3604989779402707,0.0038334339705996534
mp-1747,K2Te1,-1.2220047158333334,0.0
mp-1009792,C1Ru1,0.4538444662500005,0.3618924556249983
mp-551900,Bi2Br1O4Pr1,-2.368827735,0.0
mp-758272,N2O5Zr4,-3.1313525775,0.019670516591017675
mp-41701,Co2H3Li1O14P4,-2.224195547465278,0.0
mp-12645,Ho1Li1O2,-3.239522976666665,0.0
mp-505138,K2Pd1Se10,-0.7602010551490384,0.0
mp-30279,I1Np1O5,-2.127029294821426,0.0
mp-31360,Cl9K2Ta3,-1.8798575111428575,0.0
mp-559354,Na1Nb1O3,-2.8030734092758616,0.0
mp-27267,P4Re1,-0.3213338941666663,0.0
mp-5450,F6K2Zr1,-3.6618721834444443,0.0
mp-17649,F7Sn1Tl1,-2.345602683055555,0.0
mp-769296,Ag1H9O5,-1.1034714261944438,0.07888504058332965
mp-17564,Ca5Sb3,-1.0579432456250002,0.0
mp-5942,As1Na1S2,-0.7070754651562492,0.0
mp-14716,Au5F21Nd2,-2.235361043928571,0.0
mp-561254,Ge1Li3Na1O4,-2.2346471462835247,0.0
mp-18612,Mo1Rb2S4,-1.2407968307142845,0.0
mp-11601,Er1Na1O2,-3.1411198083333343,0.0
mp-715574,Mo1O3,-1.8661325440625003,0.0
mp-540883,As2P2S7,-0.23601041505817089,0.0
mp-559332,Bi1I1O3Te1,-1.4222571298611104,0.00758203827125629
mp-19341,O4Tl2W1,-1.735513837857143,0.0
mp-770472,Ho1Lu1O3,-3.932783648208337,0.082399802124921
mp-29526,Br1N1O3,-0.08112605024999908,0.0
mp-674341,O7Sc3Ta1,-3.6130572632954543,0.18356618702715688
mp-510633,Br2C1O3Pb2,-1.63250353984375,0.0008606778124766734
mp-14901,As1Na1O4Zn1,-1.9290362143637108,0.0
mp-1340,Ga2Se3,-0.8681470094062504,0.0
mp-761481,Fe1Li2O5P1,-2.4004273995833327,0.0676250112485906
mp-560356,I1S8Si2Sm3,-1.7441103278571433,0.0
mp-2309,S3Tm2,-2.3522312330416666,0.0
mp-555805,Al1Cl7S1,-1.2887086236805554,0.0
mp-555785,Nd2O7Ti2,-3.691623024810605,0.0
mp-755950,Ba2O5Sc2,-3.5081502665277773,0.0
mp-766416,C2H6K2O13S1U1,-1.969877327315001,0.03241053680052346
mp-7137,Li1O2Tb1,-3.2723325264583325,0.0
mp-549127,Bi2Cl1Ho1O4,-2.485062956875,0.0
mp-17008,Ca1O3Te1,-2.1549590973333332,0.0
mp-757094,Hf1La2O5,-3.8008403546093774,0.0230981768749583
mp-554643,F3K2O4S1Sb1,-2.4594881492386365,0.0
mp-567391,Dy3N1Se3,-2.0933864220758918,0.0
mp-570607,C2Dy5I9,-1.4575812420833318,0.0
mp-753515,F1O4Sb3,-1.8562419828124987,0.02190346570311119
mp-573763,Cs2Te1,-1.1322640391762453,0.0
mp-2874,In2O7Si2,-2.686037632840908,0.004806763636362374
mp-6304,Ga1O6Sb1Sr2,-2.631084422333332,0.026288994875517703
mp-775821,N2O1Ti2,-2.1281026033333346,0.05300393101133736
mp-555271,Ba2Cl1F7Zn2,-3.257417588958333,0.0029843095829882316
mp-559228,Hf1Rb2S4,-1.5012534357142857,0.0
mp-27483,Li5O4Tl1,-1.8659263866249993,0.0
mp-764789,F3Li1Mn2O1,-2.654705162385057,0.058433116071073855
mp-17918,Ba2F2S3Sn1,-2.4016903694921883,0.0
mp-549720,I2Nb1O1,-1.6475155171875002,0.0
mp-550111,Bi2Br1O4Sm1,-2.4070850925,0.0
mp-754368,Na1O2Sb1,-1.851742965344827,0.0004019677232385277
mp-752422,Cl1I1O1,-0.6103858279166666,0.06187588849999903
mp-555214,S1Zn1,-1.0490974748317305,0.0
mp-11166,Ba1C1F2O3Zn1,-2.7108076367187506,0.0
mp-676694,Li1Nb1O3,-2.892265742250001,0.0
mp-29226,Ca3Ga4O9,-2.5747893813541665,0.0
mp-755991,Ag1Br1O4,-0.1764260223611108,0.037234746693375675
mp-720294,As1H18N3O7,-1.022322877413792,0.0
mp-568318,K1Ta1Te3,-0.8252794922999999,0.0
mp-772319,Co3Li4Ni5O16,-1.3050137495833332,0.03318337415178111
mp-541000,As11K3,-0.2701126393928566,0.0
mp-559895,Br1Cu1Er1O6Te2,-1.972896175984849,0.0068489481252045955
mp-769855,Cr1O3Sr1,-2.571499109,0.057477218458299006
mp-556017,O9P2Th2,-3.3304690239194112,0.0
mp-30543,Ag7Rb1S4,-0.3831987897222226,0.029090899374999646
mp-19455,Mn1Mo1O4,-2.2136437432471254,0.0
mp-24446,H2Li1O4S1,-1.7407578338541665,0.0445873699220487
mp-3901,Nb1Nd1O4,-3.338676842083333,0.0
mp-556975,Cu1Nd3S7Si1,-1.8417293945833322,0.0
mp-13753,O14P5Sm1,-2.5762727023690473,0.0
mp-27925,Er2F7K1,-4.227604005416668,0.0
mp-28994,As1K1Li2,-0.725786452395834,0.0
mp-555257,Bi1Mg2O6P1,-2.712112014964285,0.0
mp-561067,F6Fe1K1Rb2,-2.9378185002999997,0.0
mp-2963,Al2Ca1O4,-3.4519492641666654,0.0006503210477052537
mp-634378,H1Na1O4S1,-1.8985965189470433,0.0