Material ID,Compound,Energy,Hull Distance
mp-755142,La2Mg1O4,-3.562966229285714,0.0699436849999806
mp-648469,Cl10N3P2S1Sb1,-0.8909957927818631,0.04387142377890087