Material ID,Compound,Energy,Hull Distance
mp-21228,Cu1F1Se1Sr1,-2.261927905377604,0.0009549143749811861
mp-766540,Li4S4Ti1,-1.5133670252314806,0.0
mp-707958,C2H9N4O5P1,-1.0917700481944446,0.014119291936919373
mp-28874,Br1Hg2P3,-0.23893312773809683,0.002217530595237549
mp-12525,Li1O6Re1Sr2,-2.7402696944166665,0.0
mp-561472,F1Hg2O3P1,-1.8917105824404763,0.0
mp-556708,K1O11P3U1,-2.910192132573659,0.0
mp-559951,Bi2O9Sr1Ta2,-2.831603905511904,0.0
mp-675430,Ag2Se7Sm4,-1.6445265865184295,0.08328442513862964
mp-569815,Ru1Si2,-0.5617403383333345,0.0
mp-775439,Cr3Li2O18P5,-2.561198410922619,0.09765290821490069
mp-29898,Au4S3Tl2,-0.31275225038194143,0.0
mp-650619,Bi7Cs3Se12,-0.8897210325950237,0.0026854786363640862
mp-12442,Au1F6K1,-1.6377755073437505,0.0
mp-554737,Au2Cs1F7,-1.7795102820431037,0.0
mp-760489,H6N1O2P1,-0.9674687942142853,0.017124127837255188
mp-568450,Al1H5Sr1,-0.40739133517857135,0.0
mp-558992,Ge1In7Ir1O8,-1.646660714411765,0.0
mp-552488,Cu1La1O1Se1,-2.3130670999609375,0.0
mp-570311,As4K4Sn1Sr2,-0.6660048524848484,0.0
mp-600024,O2Si1,-3.0274147493055565,0.0
mp-622278,O8Sb1Tl1V2,-2.0710862648611106,0.0
mp-755376,Er2O6Te1,-2.862161228888889,0.0
mp-677431,Na3Nb3O12Sr1Ti1,-2.987159264623563,0.0296714624997108
mp-634,Hg1S1,-0.2353434191666667,0.0
mp-757541,Bi1Li1O4Si1,-2.4586614271428573,0.023689681258661364
mp-22255,In1Rb1Te2,-0.9127341927083328,0.0
mp-561134,I3S2Sb1Sn2,-0.6152671256249995,0.056648271041668585
mp-769870,Fe3Li4O16Sb5,-1.907898410833332,0.043725076357083434
mp-770390,Cr4Li2O13,-1.731360027653509,0.013997742171054628
mp-28281,H4I3N1,-0.4338580157812508,0.0
mp-2970,Ge1Na4O4,-2.0181330229118775,0.0
mp-4604,Li7N4V1,-0.9590333469097215,0.0
mp-1247,Ir1Sb2,-0.45282265916666614,0.0
mp-761549,Li1Mn1O4P1,-2.5598767808438887,0.0
mp-554889,S1Zn1,-0.9615744622395835,0.0
mp-653429,Cl3Fe1Mn7O10,-1.9012507345484402,0.0
mp-28529,Br3In1K1,-1.4666160232500005,0.0
mp-555717,Ir1K2Nd2O7,-2.4722871368541663,0.0
mp-776435,La1N1O2Ti1,-3.0314167986666676,0.033488175254409926
mp-754823,Er1O2Tl1,-2.7442387577083327,0.09836478796944537
mp-760251,Cu1Na2O7P2,-2.3539511292516764,0.0
mp-679987,Cl5Nb1P2S2,-1.2202891527916662,0.0
mp-621930,Cs2N12Sr1,-0.23252860066667153,0.008838362499999993
mp-771996,Fe19Li3Mg2O32,-1.7915079308928574,0.04923163491079029
mp-7604,F3Mg3N1,-2.8152740951785717,0.0
mp-752798,Ce1O6Th2,-4.073726817777776,0.005466908888920664
mp-20606,In5S12Tb3,-1.3560481046874997,0.00845380665625033
mp-24452,Ca1H6O7P2,-1.943377239244791,0.0012383185073954195
mp-4875,Gd1O4Ta1,-3.528910278722222,0.0
mp-29558,Bi3Cl1O4,-1.6640525900000007,0.008908471656237538
mp-776172,Al1Cu1O3,-2.05666624725,0.07684149149981785
mp-1018100,Al1Sb1,-0.24409026249999854,0.0
mp-768572,Al3O6Y1,-3.513692000416667,0.08369926249999367
mp-764357,F5O1V2,-2.9946865839062498,0.0
mp-27849,Br1N1Ti1,-1.6472776084722227,0.0
mp-706235,Ca2Na1O12V3Zn2,-2.5557816313275863,0.0
mp-559549,K2La1Nb5O15,-3.100760761391304,0.007921725459932754
mp-693340,Al4H13N3O32P8Zn4,-2.228481036354167,0.01900839370549301
mp-559872,O2Si1,-3.036409978333334,0.0
mp-773164,Gd2O7V2,-3.1111817519318183,0.025423695393181397
mp-30119,As1Cs3O4,-2.007060348286637,0.0
mp-759883,Bi1F1O1,-2.2196519216666637,0.0
mp-773455,O7Sn1V2,-2.255988193500001,0.0
mp-27703,Br1In1O1,-1.5318359466666678,0.0
mp-571184,Br7Cu1Mo3,-1.0155465426136372,0.0
mp-775437,O24P6V3W1,-2.5759725352310916,0.0
mp-37829,La5Se8Tl1,-2.1532021669642876,0.0
mp-14482,Nb6O16Sr1,-3.0896912055072456,0.04867557956518145
mp-755116,In2O7Pt2,-1.3040124018181805,0.0
mp-675199,Na1Pr1S2,-2.017989208200431,0.0
mp-777804,F4Fe1Li1,-2.746566549930556,0.002276242685136154
mp-27456,Ba1Br2,-2.63666240666667,0.0
mp-752475,Ga2Ge3O10Rb2,-2.1294555286764707,0.0
mp-571146,Cl1I1Sn1,-0.8494572300000011,0.0
mp-556890,Ba1Cr2F9Na1,-3.3598955248076923,0.0
mp-762863,F5Fe3O1,-2.3846081583333336,0.03702078722224458
mp-560014,Cu1Pr3S7Sn1,-1.7341647014062491,0.0
mp-579560,Br9Cs3Sb2,-1.5987775242118223,0.0
mp-542200,Ag4Cd1Ge2S7,-0.5317990431547608,0.001524653928572103
mp-560740,La2O2S3Sn1,-2.491622326250001,0.0
mp-767692,F6Li2V1,-3.0834049107407413,0.0
mp-720912,Br3H4K1O2Zn1,-1.4251620158863632,0.01685789937474008
mp-12630,Mg1O4Se1,-1.8731134028906251,0.0
mp-772660,Cr1Nb1O4,-2.7483318787499997,0.026917966770856932
mp-768267,Ho1In1O3,-3.006324769916667,0.010214691583092872
mp-43068,Ag1Al3Br1Na3O12Si3,-2.933388861556722,0.0
mp-19019,Mo1Ni1O4,-1.7385510091666667,0.0
mp-28574,K1O2Pb1,-1.3829998115624988,0.0
mp-561455,Ba8S17Sb6,-1.5275295758870955,0.0
mp-16164,Dy3F1O10Si3,-3.7159333719117638,0.0
mp-775262,F7Fe5O3,-2.2207367059999994,0.034377576000002345
mp-18915,Co1Li1O4P1,-2.3525741638095243,0.0
mp-29901,Cd3Rb2Te4,-0.84102866277778,0.0
mp-764745,F7Fe4O1,-2.416591452499999,0.0461661200264268
mp-568333,Br6K2Sn1,-1.5840314505000033,0.0
mp-18065,Al1Ba1Ca1F7,-4.103017936750001,0.0
mp-555435,Cl2I1N3S4,-0.03350946824999994,0.16694368088393058
mp-753673,Bi1F1O1,-2.148693085,0.0
mp-648,Na2S1,-1.2689239159375003,0.0
mp-715438,Fe3O4,-1.5676611264285714,0.0
mp-581403,B1F22K3Na4Si3,-3.315656804431822,0.0026654263131575817
mp-3486,K1Sb1Sn1,-0.42845374291666616,0.0
mp-27878,Na1O8Sb5,-1.533810064285715,0.0004542566963906377
mp-625654,H1O3Te1,-1.349271785083333,0.0
mp-15066,Li1O4Si1Tm1,-3.437856402976191,0.0
mp-1016092,O7Re2,-2.0276550424999993,0.0
mp-18737,Nd2Ni1O4,-2.9758601892857137,0.07001078500009632
mp-27716,K1O1Tl1,-1.201804981694444,0.0
mp-19082,Mn1O3Ti1,-2.955367432502874,0.0
mp-38487,Bi1Li7O6,-1.876723085654761,0.0
mp-29761,C1O5U1,-2.822879040178571,0.005631210357152432
mp-21332,Gd1Li1O2,-3.111183416666666,0.0
mp-756436,Fe1O1,-1.3665272493750003,0.0
mp-29911,Ba3O1Sb2,-1.6755942402083335,0.0
mp-19308,Li2Ni1O2,-1.719930090333333,0.08186355399999438
mp-680333,Ge4Se9,-0.29388575377403797,0.00589278010817323
mp-773667,Ge2N2O1,-0.7292526070000008,0.0
mp-6942,Cd1Ho2S4,-1.944035255714283,0.0
mp-568522,I5In3Sn1,-0.7135625094444459,0.0
mp-763784,F6Li1Mn2,-2.8798039437994896,0.012611087037042366
mp-27917,Ca3O5Si1,-3.377763236342592,0.019748056296324517
mp-675625,K1N1O3,-1.41568830485,0.0
mp-556438,K1Na1Nb1O5Sm1,-3.009329100681034,0.0
mp-560605,Au1La4Li1O8,-3.1497413280952378,0.0
mp-1000,Ba1Te1,-2.003574658333333,0.0
mp-562569,Cs1P1Pb1S4,-0.9784004123997236,0.0
mp-24456,H2N2O5Sr1,-1.424219308541666,0.05004773600945907
mp-28701,Cs1S6Sb1,-0.7473836892726293,0.0
mp-2371,Ga2Te5,-0.29883116142857247,0.0
mp-19259,Al6O16Sr4W1,-3.2972699854320986,0.0
mp-758899,F8O1Sb2,-2.4254091945454546,0.04387944827271055
mp-20027,Fe1P2,-0.5353095164285703,0.0
mp-776205,Hf2N2O1,-2.4396294997500005,0.0
mp-31362,Cl6Na3Y1,-2.2386238704999997,0.0
mp-624,As1B6,-0.20918894107142855,0.0
mp-555650,Cl1Nd1O3Se1,-2.4344650487239576,0.0
mp-629082,Ba3Mo1N4,-1.0130314014583348,0.0
mp-752677,Ba2Br7Y1,-2.445645782166667,0.0210035267500011
mp-6456,Ge1Li1Nb1O5,-2.615431923072917,0.0
mp-676643,Ba2F1N1,-1.8648143581249998,0.008212079374984693
mp-776213,Hf2N2O1,-2.5699421697499987,0.0
mp-704210,Mo1O4P1,-2.3206446346212126,0.11603821097162055
mp-777453,F6Li1V1,-2.9097217801041673,0.0
mp-759766,B1Bi25O39,-1.6148297736987178,0.0984339979615612
mp-758289,O53Ta18Th4,-3.4480670599166676,0.05374353266666731
mp-567722,Ca7N9Nb1Si2,-1.3467963426315783,0.0
mp-706608,F1H3K1O3P1,-1.9463529105648152,0.009292063405729955
mp-18002,Ge1K1Li3O4,-2.237754411444444,0.0
mp-554724,Cu1I1P4S3,-0.3948849195634902,0.0
mp-24818,Be1H3Li1,-0.32563473166666695,0.0
mp-557997,Ca1O3Se1,-2.3076904122187507,0.0
mp-561179,Ba2Cu1I1O2,-2.23982389875,0.0
mp-29104,O8Ti3Zn2,-2.9765354882692296,0.0
mp-1443,F8Sn3,-2.5396547613636358,0.0
mp-41283,Ba1La1Mn1O6Ta1,-3.183975058526437,0.11611420966137302
mp-6721,Li1O6Ru1Sr3,-2.583224495075758,0.0
mp-5986,Ba1O3Ti1,-3.370346751333332,0.0
mp-18997,Li1Mn1O4P1,-2.6344659038711007,0.0
mp-622930,Ba4In6O13,-2.3078082819021737,0.023589226521742692
mp-3196,Ga1Nd1O3,-3.051137829499999,0.033069183250163545
mp-558934,Cl1Hg3O1,-0.6003426300833336,0.004451284833331038
mp-755887,La2O1S2,-3.027281258000001,0.0028980385000213714
mp-19398,As1Fe1O4,-1.680242882777777,0.0
mp-18532,Ho1P1S4,-1.3551586309722221,0.0
mp-554826,Cl1O8Pr3Si2,-3.455851452321428,0.0
mp-557807,Au1Cs1K2O2,-1.2635423835718385,0.0
mp-27608,Be4O7Te1,-2.5732036056597223,0.0
mp-556761,As3Ba5Cl1O12,-2.738350222261905,0.0
mp-40204,F5K1O1Tl2Zr1,-2.944028928391668,0.057917928010280305
mp-626506,H1Na1O1,-1.386076482916667,0.0
mp-752414,O5Tb2Ti1,-3.771364843333332,0.0
mp-760319,Bi5F1O7,-1.7324777282692299,0.052580847692333066
mp-752983,Ce1O16Zr7,-3.781466208125,0.024762563958302525
mp-753755,Bi3F1O4,-1.8408453165624996,0.025534654687498604
mp-769500,C1Mn1Na1O7P1,-2.170088328551463,0.0
mp-4618,O4Rb2Se1,-1.553753628794642,0.0
mp-28912,Br3In1Mn1,-1.1230968365862068,0.003003206021927429
mp-28075,K2O5Ti2,-3.063042288490742,0.0
mp-755776,O4Rb4Si1,-2.247787203333333,0.0
mp-554164,K1Li1O7P2Zn1,-2.6158653351458327,0.0
mp-645962,B14La4O27,-3.1568353726851845,0.0
mp-673071,Li2O7P2Sn1,-2.532705944454365,0.017169976038809764
mp-629443,Eu1Ge1Li2S4,-1.473330040833333,0.0
mp-776201,N2O1Zr2,-2.2444119527500006,0.0
mp-558229,La10S19,-2.205051037015086,0.0
mp-2892,Ba1Nd2O4,-3.5141440717857138,0.0
mp-758844,Cu1Li3O4Si1,-2.3053098444444444,0.1126372449977582
mp-647096,Gd3N1S3,-1.5761645095982146,0.0
mp-677103,F2H1Rb1,-2.485399400625,0.0
mp-570985,C1Si1,-0.20349627949074106,0.0
mp-27210,F4Rb1Tl1,-2.4986916988888854,0.0
mp-759825,Bi1F1O1,-2.1957317716666664,0.0
mp-772898,Al1Ga1O3,-2.817521608,0.028006870499983093
mp-557154,Ga1Na1O2,-2.210666212575431,0.0
mp-540996,B1Ge1Nd1O5,-2.973935837864584,0.0
mp-756086,Bi1Li5S4,-1.205342680166666,0.04447025599999943
mp-22303,In1Rb3S3,-1.2565112645238088,0.0
mp-6122,Ba2Nd1O6Sb1,-3.014198696,0.0
mp-3782,Nd3O12Sb5,-2.607093833125,0.0
mp-680153,Cd1I2,-0.8589716666666661,0.0
mp-555112,Cr1F6Li2,-2.947815000740741,0.0
mp-770729,Al1Fe1Li2O4,-2.430162302395833,0.016841030938335333
mp-10973,Cu1Ga3K2Se6,-1.0416112029218751,0.0
mp-2352,Na2O1,-1.394608165,0.0
mp-27293,Br6Hg1Tl4,-1.0956123873484884,0.009663724090908038
mp-559676,S1Sn1,-0.6745067940625002,0.0
mp-603612,H8N2O13P4Ti1,-2.0063165973363084,0.02591642723458725
mp-772779,Ca1O3Se1,-1.7507180705208336,0.0
mp-6113,As1Li1O5Ti1,-2.347761367916667,0.0
mp-13596,F6K2Zr1,-3.6607915412222223,0.0
mp-706632,Br3H15N5Rh1,-0.6252439862500001,0.0
mp-19034,Mg3O8V2,-2.7503379388461537,0.0
mp-18100,Ge2Na6Se7,-1.0560782526454735,0.0
mp-707977,Al1O4P1,-3.1057476757738076,0.0
mp-777595,F4Fe1Li1,-2.7668639147222223,0.002276242685136154
mp-772160,I5La1Sr1,-1.8319618716666668,0.027997881071426534
mp-560973,O2Si1,-3.0110143705555563,0.0
mp-556041,Ba2F6Ni1,-3.5282352738888894,0.025248068888941252
mp-18893,Ca2Mn3O8,-2.4177565141379316,0.0
mp-27888,Ge1O8Zr3,-3.3863918637500006,0.003864140416636038
mp-18691,Ni3Rb2Se4,-0.7527783293055563,0.0
mp-755382,Bi1O3Sb1,-1.62920359425,0.08633355172725139
mp-626151,H1O2Y1,-2.9773277022916664,0.0
mp-769266,Ca3O8Ta2,-3.475447315,0.011173808568253426
mp-768143,C1Ge1Na1O7P1,-2.2119649439668225,0.039636252612376535
mp-772282,I2O5Sb4,-1.235451476363636,0.0025760584943165746
mp-17308,O7Si2Tb2,-3.6586724496590906,0.0
mp-773146,Cu1Li2O4P1,-2.28850472766369,0.04814798843522272
mp-35759,F4Li2Ni1,-2.7815154940476186,0.0
mp-558102,K1Li1O5Si2,-2.979049977787037,0.0
mp-1990,As2Mg3,-0.78755513925,0.0
mp-7475,La2S3,-2.4943648978749997,0.0
mp-5391,Mg2O4Si1,-3.1604842757142855,0.0
mp-772798,Ba1La2O4,-3.5262299397619055,0.0
mp-29198,Au1Na5Se12,-0.818774159493534,0.0
mp-769228,Cs5O4Y1,-1.8791936406321839,0.00030624037466715494
mp-558199,As4Cl1Cu1S3,-0.4545128968749997,0.004725575092590873
mp-768140,Bi1C1Na2O7P1,-2.2630649922834554,0.0
mp-28202,K3N1O4,-1.1729666331250002,0.0
mp-23674,Br1H4Na1O2,-1.4076185307974134,0.02135274812498955
mp-556503,C1H3Li1O3,-1.4952593374479166,0.06943667117185415
mp-27692,B4Ba1O7,-3.020224705451357,0.0
mp-774186,H5Li1O9P2V1,-2.048311580909391,0.050595739254052634
mp-4423,La2O7Ti2,-3.7309080344696968,0.0
mp-5004,B2Na2Se7,-0.7135303529543816,0.0
mp-13946,F6Rb2Zr1,-3.656364133611111,0.0
mp-720861,Cl1H13O6,-1.233865531,0.015229145499999142
mp-1019744,Al2K2O10Si3,-3.1937938313823535,0.018249208640119467
mp-554006,Ca1O4Si1Sr1,-3.3034798520833326,0.0185799837622095
mp-17322,Cu2S4Sn1Sr1,-1.0253523759375003,0.00592199270833027
mp-769631,Li2Mn3Ni1O8,-1.939583195747127,0.0
mp-33932,H1Nb1O3,-2.4755584917499993,0.06094676137500876
mp-17235,O7Si2Sm2,-3.4905252434090914,0.0
mp-560334,Al1Na1O4Si1,-3.1507926268288173,0.0
mp-554141,Ca3O5Si1,-3.3781257633796304,0.019748056296324517
mp-557805,Bi1Br1Mn1S2,-0.8722607495862065,0.03172317563917346
mp-12193,Nd2O7Ti2,-3.731781417992424,0.0
mp-770799,Li5Nb1O5,-2.534204386401515,0.008818674545457322
mp-556515,As1F9O1S1,-2.1766154327083336,0.04246024052084311
mp-735022,H1O4P1Sr1,-2.8138710478061233,0.0005405677809022791
mp-690541,O3S1Tl2,-1.3963603327777807,0.10734857489583671
mp-13863,Ba1Ge1O3,-2.6934195809999997,0.0
mp-643384,Ba1H1I1O1,-2.1430054828124994,0.0
mp-15225,Nd2O7Si2,-3.4781927182954537,0.0
mp-703253,Fe1O7Rb1Se2,-1.513654760426136,0.0
mp-765406,Nd2Ni1O4,-2.90243583642857,0.07001078500009632
mp-42227,Cs2F5O1Tl1Zr1,-3.1688767952643695,0.01678685733752445
mp-13356,Ba2O6Sr1Te1,-2.7278956851666663,0.0
mp-690495,Fe5O8Sn1,-1.659292386071429,0.01853738321428113
mp-23053,Cl1I1Pb1,-1.2115419991666665,0.046579261249998304
mp-557381,Ge2O13Rb3U3,-2.999411416488096,0.0
mp-541156,Ge4O9Pb1,-2.0195485560119035,0.0062534184821433515
mp-19318,Ag2Mo1O4,-1.2485939940476203,0.00031228892854555975
mp-14734,C1Cs1F3O1,-2.330971306609198,0.0
mp-696983,Ga1H4K1,-0.2897631762083333,0.0
mp-757197,Dy1O6Y3,-3.9175698469999984,5.236166651201302e-06
mp-543011,S1Zn1,-1.0505007215625,0.0
mp-764224,F2Li2O5V2,-2.543937732310607,0.06470973409105599
mp-7535,Al1Li5O4,-2.4934180551666665,0.0
mp-1019534,Al4Ba1O7,-3.444656302083333,0.000550607266688985
mp-770907,Gd2O9W2,-2.872547380576923,0.013699864423041018
mp-19378,Ag1Cr1O2,-1.6764581862500005,0.0
mp-769390,Ca3O8Ta2,-3.4511930245897426,0.011173808568253426
mp-18765,Na2Ni1O2,-1.2979074375517237,0.0286802884321693
mp-19315,Mn1O6Sr2W1,-2.7678794977931025,0.0
mp-754768,O7Pt2Tb2,-2.2715574559090896,0.0
mp-777488,F6Fe1Li3,-2.956943243,0.0
mp-754462,F6Sb1Te2,-2.136331978703703,0.08613757222166206
mp-759680,Bi1Li1O6Si2,-2.7375339573333326,0.04208266662463558
mp-775820,N2O1Ti2,-2.1290360653333336,0.05300393101133736
mp-559655,F2N1P1,-2.0488401754166676,0.0
mp-677164,As2Cl7Cu1O6Pb6,-1.5509350331818175,0.0
mp-763002,F5Fe4O3,-2.1377549223958323,0.030249310833315352
mp-766238,N2O1Zr2,-2.4460996499999994,0.0
mp-1020013,Li2O7S2,-2.093021597878787,0.0
mp-639682,O2Si1,-2.9988969163333326,0.0
mp-768422,H1O2Tm1,-3.0287079354166657,0.002909071093701421
mp-558099,Br9Nb2S4Tl5,-1.2306600933333343,0.011594830499948116
mp-28069,As1Ca3Cl3,-2.252943995714286,0.0
mp-755511,Hg2O5Y2,-2.3915636102314815,0.0897679816666681
mp-18084,Ba1O5Tb2Zn1,-3.248361001759259,0.012635670879807511
mp-12904,Ag1Ho1Te2,-1.112067171249997,0.0
mp-568293,Ca3N2,-0.9283447760000001,0.0
mp-770950,La4Li1Mn1O8,-3.3434212009831694,0.035953131071770325
mp-643898,Ca1H2O7P2,-2.5794710549404756,0.0
mp-16804,Ca1Li1O4P1,-3.102060267329931,0.0038585206741415285
mp-541626,Ge2K3Nb3O13,-2.6263586032261914,0.03485525936721821
mp-774364,Cr1Li1O4P1,-2.5001451200680265,0.0052990134411981926
mp-773454,Co1Li5O4,-1.879167949666666,0.0
mp-504802,H12Mg1O9S2,-1.4297894427083335,0.018626362540820136
mp-27687,Li1P7,-0.15524012536458365,0.0
mp-756686,Al1Ga1O3,-2.7410037377500003,0.028006870499983093
mp-772049,Li2O5Ti2,-3.117845926481482,0.027627804814794307
mp-554856,Na2O5Si2,-2.7324211125,0.0
mp-29337,B1S3Tl3,-0.5120632394196443,0.0
mp-28242,Cl4S1Tl6,-1.091223463920455,0.011170410000001206
mp-20742,Eu1P1Se3,-1.1070341585327383,0.0
mp-37381,F1O1Sm1,-4.112338709166662,0.0
mp-505727,Cl1N1O1,-0.4038479037499994,0.0
mp-19123,Li1O4Rb2V1,-2.365287945416667,0.0
mp-765781,F5Li1V1,-3.0318018465476193,0.001775361071415103
mp-560323,C4H11N1O10,-1.2440832431730775,0.05360667288461311
mp-1009733,Ca2Si1,-0.5342576716666679,0.0
mp-707055,Ge1H12Na2O7S2,-1.3124028902855607,0.007589162214301541
mp-722980,H1Hg4N3O10,-0.7698091464583349,0.002009370804966141
mp-6356,Ag1Cd2Ga1S4,-0.8110572023958325,0.0
mp-322,S1Tl1,-0.30784839515624896,0.02662877031250055
mp-667291,Hg2O5Re1,-1.5070285532812502,0.0
mp-768257,Bi2C4Na4O16S1,-1.91952771516044,0.02439894973791889
mp-27747,I2Pd1,-0.5367684666666653,0.0
mp-6250,Ba1O5Tm2Zn1,-3.29911499662037,0.026319931157289825
mp-557420,B5Ba1K1O9,-2.949962186255208,0.0
mp-23222,Bi1Li3,-0.5419084449999994,0.0
mp-756281,Al1O3Tm1,-3.7780409460833333,0.019112641049992617
mp-24831,Dy1H4I3O11,-1.4277996013815795,0.0049411911842070525
mp-705541,O9V10,-1.7865598535526317,0.11049054151315679
mp-771050,Li7Mg1Ni7O16,-1.5309725680107515,0.01226495826598544
mp-705562,Mo4O24P5,-2.316497213383839,0.005647154318183287
mp-571642,Ca1Cl2,-2.647301069166667,0.0
mp-17832,Ba1O4P1Rb1,-3.0282467636904755,0.0
mp-16180,Na6O9S2,-1.906752960036765,0.0
mp-556983,Ga1La1O3,-3.0936580497499997,0.03196867907138419
mp-6951,Cd1F3Rb1,-2.6983335869999983,0.0
mp-570168,Br4Rb2Zn1,-1.7878181985714288,0.0
mp-540773,Ca2Ge1S4,-1.589778220178571,0.0
mp-755420,O4Sm2Sr1,-3.4848953560714295,0.02043617839284703
mp-3143,Na2O4S1,-2.207583616604064,0.0
mp-22968,Cl1Na1O4,-1.0083478960919539,0.0
mp-3323,O3Sr1Zr1,-3.6081002205833337,0.0
mp-542435,Li3N2Sc1,-1.0498281918749985,0.0
mp-561499,Cu1Dy3S7Sn1,-1.7056538280729174,0.009469135521184965
mp-23922,H1N1,-0.06445735437500044,0.03423465951916671
mp-634657,H1Na1S1,-0.8100384871875003,0.0
mp-755054,N2O3Ti3,-2.6734800895312496,0.0045745415702880265
mp-10960,O5S2Tb2Ti2,-3.3085049838636356,0.0
mp-766350,Bi1Li1O4Si1,-2.463058483690476,0.023689681258661364
mp-32959,H2O1,-1.0285185441666667,0.0
mp-754408,Ba2I6Sr1,-1.9983481105555556,0.013791629444444453
mp-558941,Li1O4Si1Y1,-3.40959019892857,0.0
mp-768095,K1O20V13,-2.4004072666838234,0.09704869979579159
mp-770805,Hf2Li6O7,-2.964924142166666,0.0
mp-20217,Eu1P1S3,-1.2880862237827386,0.0
mp-777292,Ba3Br12Y2,-2.4434095261764703,0.05638287397058949
mp-17337,As1F4O1Rb1,-2.589037453035714,0.0
mp-755205,N2O1Zr2,-2.2341475619999995,0.0
mp-769404,O3Se1Y1,-2.3002227313125005,0.0
mp-583193,Cs3P1Se4,-1.083684052403271,0.0
mp-556679,Ca3Na2O10Si3,-3.2152953090421454,0.0
mp-10835,Cu1Rb1S4Sm2,-1.8835421115624995,0.0
mp-28334,Se4Si1Tl4,-0.5508134423611118,0.0
mp-15433,Ga2K2Sb3,-0.4673525341071435,0.0
mp-29489,O7P4Se1,-2.0036441330772568,0.044347211589276604
mp-720461,C3H22N9O11P3,-1.1077018969531245,0.024765954875090184
mp-770589,Al2Fe1Li3O6,-2.642794751666667,0.020300400833151617
mp-769048,Li3Nb1S4,-1.3192387784374997,0.0009539628124601851
mp-770581,Mg1Mn1O3,-2.2958068258362063,0.0
mp-569512,Cl8I1Sb1,-0.9670836130000005,0.0
mp-753605,Cu1Li1S1,-0.8853573529861111,0.00457404319444817
mp-768084,Li8O22V11,-2.4621682570528463,0.04912576564027712
mp-29287,Br5Co1Cs3,-1.6890622399999984,0.0
mp-776715,F7Fe2Li3,-2.8188739081250005,0.04356538916668976
mp-698587,Ni1O3Ti1,-2.5741232221666666,0.0
mp-774382,F4Li2Mn1,-3.0157212567282436,0.01941146571428882
mp-770092,Hf1O7P2,-2.940954648095237,0.0
mp-767341,C1Li2O7P1Sc1,-2.754869029479167,0.047458792500037816
mp-510608,As1Cu1H1O5Zn1,-1.4908359054166667,0.009349454969570835
mp-22750,O8P2Pb3,-2.300489266666666,0.0
mp-17929,Cu3Ho2Rb1S5,-1.463976947272726,0.0
mp-675214,Bi3F11Rb2,-2.7724552482812497,0.09445196761707297
mp-756443,Er2O5Ti1,-3.7086742629166487,0.0
mp-706367,Ca1H4K1O11P3,-2.3858076905874994,0.04184126887516584
mp-3318,Be1F4Na2,-3.265084995036946,0.0
mp-28520,Rb2Sn1Te5,-0.7997832179166675,0.0018071315624996753
mp-756715,Gd3In1O6,-3.2765023029999982,0.011105416472543084
mp-28728,As5K6Sn3,-0.5609725714285706,0.0
mp-768906,Br1O1Y1,-3.2864890716666673,0.0
mp-4453,N1O2Tl1,-0.7657714733333355,0.05782052935360882
mp-682284,In2O6Zn3,-1.8483405231818189,0.03586970727272775
mp-555369,Cu1H6O5Sr1,-1.5360367777243586,0.01847112711512394
mp-3889,B1Na1O2,-2.6056715288864942,0.0
mp-29597,B1La1N2,-1.5581409168749996,0.0
mp-17441,Ge1Mg2S4,-1.2603745989285713,0.0
mp-556094,Ag1Bi1Cl2S1,-0.9577706839583339,0.0
mp-758201,Li1O7P2Ti1,-2.799856001677489,0.055843307886368106