Material ID,Compound,Energy,Hull Distance
mp-36915,Fe2K6O5,-1.1782466523846142,0.0010997938817354225
mp-5974,La2O7Si2,-3.6661806032954534,0.0
mp-14328,Ge1O9P1Pr3,-3.335362320684525,0.0
mp-568011,K3P5Ru1Se10,-0.7740694433739037,0.0
mp-680339,Mn4Si7,-0.38767577379310453,0.0
mp-30273,Ac1Cl1O1,-3.5868484470833333,0.0
mp-4825,Li7N4V1,-0.9016439918402774,0.0
mp-31115,Er3Ga1O6,-3.5298662509999987,0.007179306349966908
mp-15312,Al6Ca4O12Te1,-3.3427296924637666,0.0
mp-552008,Bi2Cl1Dy1O4,-2.481257978125,0.0
mp-30107,Cl11Nb4Rb1,-1.7739573954687509,0.013182660156261239
mp-583615,As3In2K3,-0.5989078526562484,0.0
mp-40143,Cs2F5K1O1Zr1,-3.381096487656035,0.0
mp-13997,Al1F4Rb1,-3.638838198083334,0.0
mp-765119,Cr1Li8Mn3O12,-2.1068079533524906,0.09167281020843987
mp-6054,Ba5O21Tm8Zn4,-3.2805030715131607,0.01638352519721496
mp-690542,Li4O5W1,-2.394235705166666,0.0
mp-14406,Ba2Re6S11,-1.1697407619736806,0.0
mp-762454,Cr1Li1O2,-2.368602398958333,0.0
mp-38162,Cu1Se8Sm5,-1.9070972792857503,0.07576369875001936
mp-560348,K6Nb4S25,-1.1098225768178565,0.0
mp-28710,Ba1Ge2S5,-1.1454271831250038,0.0
mp-12271,Mg1O3Se1,-2.031537305718749,0.0
mp-24026,H9N1Si3,-0.2662486826923077,0.025862670576923
mp-683955,K1P1S6Ta1,-1.0792427434120375,0.0
mp-18460,Ge1K2O15Si6,-3.0040379659166665,0.0
mp-672,Cd1S1,-0.8838398540624999,0.0
mp-767395,Cu1Li3O5Sb1,-1.9364257662500002,0.023561061500021553
mp-29063,F8Th1Zr1,-4.2618261365,0.0
mp-768866,Cu2O5Sm2,-2.4079026780555557,0.056585093242124254
mp-5121,Nd2O11Te4,-2.0109646088235307,0.0
mp-14648,Na1O4P1Zn1,-2.4769993202650706,0.0
mp-721712,C1H4N1Na1O2S1,-0.9829493599676724,0.06489978596638828
mp-554820,S1Zn1,-0.9622174221205354,0.0
mp-31355,O6Sr3Tl2,-2.2266294715151513,0.0
mp-7726,O4Rb2U1,-2.889630375357143,0.0
mp-2234,Er2S3,-2.3664844755416663,0.0
mp-765709,Fe3Li5O10Ti2,-2.4465363499166672,0.01609996224956234
mp-777312,H3Li4O16P4Sn2,-2.3169556667467144,0.06576228314559897
mp-6138,Na2O5Si1Ti1,-2.993304915399106,0.0
mp-7449,Cs2Se3,-1.103500954578664,0.0
mp-560832,C1Ca1H2O4,-2.1384302175347227,0.02304593468749072
mp-554149,Ba1F9Fe2Na1,-3.089166571465517,0.0019937126918322815
mp-556487,F6K2Mo1Na1,-2.9675041310879315,0.0
mp-14591,Li1S2Sb1,-0.9086807519791673,0.0
mp-18750,Fe1Mn1O2,-1.8368440832758626,0.24355750625000017
mp-561523,Cl4Nb1O1Tl1,-1.9339793715476203,0.0
mp-542100,K4Nb2O23Si8,-3.0876152135540527,0.0012934058656795158
mp-13748,Cs3F7Si1,-3.298882144318182,0.0030881822727227936
mp-777749,O7Sb2Y2,-2.8083901470833337,0.06344255626262454
mp-29829,Au1Li1S1,-0.8383439839930537,0.0
mp-759720,Cu1Li1O2,-1.4144549702083324,0.0
mp-560941,O2Si1,-3.0345715695138913,0.0
mp-16988,Cu2S4Sn1Sr1,-1.0253369571875002,0.00592199270833027
mp-777924,F8Fe3Li2,-2.479466242628205,0.023509696923007084
mp-7691,B4Mo1Y1,-0.6194757730555551,0.0
mp-13599,F5Na1Sn2,-2.696225164725216,0.0
mp-540998,Br7Fe1Te1,-0.6318332427777781,0.0
mp-771158,B2Ba2O5,-3.1391770495370364,0.0
mp-6960,As2Rb2Si1,-0.4357682600000047,0.0
mp-558238,Er2F7K1,-4.227218572599999,0.0
mp-557367,As2Ca1K2O7,-2.2862441253958328,0.0
mp-28381,Cs3In1O3,-1.6233749121490146,0.0
mp-555098,O3Se1Sr1,-2.0641565843124994,0.0
mp-752692,K2O2Sn1,-1.5665163550000016,0.0
mp-1013898,Li1Mo3O13P3,-2.4119549578541672,0.017733505295114683
mp-540675,Cl4Se1,-0.34982550756249964,0.0
mp-757883,Bi1Li1O4Si1,-2.4908233319047612,0.023689681258661364
mp-13538,K1Pr1Se4Si1,-1.514594295339285,0.0
mp-6824,Na2O11Si4Zr1,-3.196731611908523,0.0
mp-643655,Al2Cl1H6Li1O6,-2.082201903802084,0.0
mp-571371,Bi1Cl6Cs1K2,-1.9938747851655172,0.0
mp-757483,F8O5Y6,-4.271051545065789,0.00026360066984553116
mp-772242,Li1O5P1V1,-2.611278368177083,0.0
mp-31068,O9P2Pb4,-1.9937090433968252,0.0
mp-19141,Co2K6O7,-1.490157639166667,0.0
mp-555942,Er3F1O10Se2Si1,-3.0571705845404398,0.0
mp-648211,Cl2N1P1,-0.957628674129464,0.0
mp-10792,B1Dy1O3,-3.4986867977499987,0.0
mp-558203,O2Si1,-3.1847756258333324,0.0
mp-7084,Ca1Si1Sr1,-0.5262799508333332,0.0
mp-777678,F4Fe1Li1,-2.724708174305556,0.002276242685136154
mp-18529,S3Tm2,-2.3804794014375004,0.0
mp-768732,Ba6I14Sr1,-1.9893171499999998,0.08267126273809566
mp-6265,Ba2O6Sb1Tb1,-3.081420798166666,0.0
mp-757127,Bi1Li1O8Si3,-2.7964788579487174,0.07540606105781987
mp-754787,O3Sm1Tl1,-2.405456504666668,0.07437984049992004
mp-558516,Cl1O3Se1Tm1,-2.5018132825434027,0.0
mp-29678,Ag1Bi1S2,-0.4883384232291661,0.01481498261143488
mp-557399,F1K1O4S1Sn1,-2.1981768492031253,0.0
mp-684454,Bi3Li3O29P8,-2.2798064476841087,0.08972892169549165
mp-776081,K2O1,-1.1442264339999992,0.0
mp-753746,O1Rb2,-1.1335924712499998,0.0
mp-773601,Cu1H8Li2O13P3,-1.881283740299824,0.08108802469776927
mp-23736,H3Li1Mg1,-0.34452003358333344,0.011314608000000259
mp-570300,Cl3Mn1Tl1,-1.4401417062528759,0.0
mp-7664,Na6O4Zn1,-1.5521400163009402,0.0
mp-32465,Li1O4P1V1,-2.55271145125,0.009706593512077635
mp-16930,Ge1Na3Te3,-0.833700693522167,0.0066243096428570325
mp-549706,Mg1O1,-2.979900216874999,0.0
mp-4163,Ca3O7Ti2,-3.407341886944445,0.0026664034204528044
mp-540977,Bi5I1O7,-1.3228966878846178,0.0
mp-704944,Ag2F1O3V1,-1.5989053767261912,0.014663026874965266
mp-23363,Al1Cl4Na1,-2.0679174710919543,0.0
mp-4841,Cu1La1S2,-1.6858297614062483,0.0
mp-1806,O3Rb1,-0.6473896003125006,0.07791026093749998
mp-568556,B24C1Mg2,-0.12922797453703716,0.0
mp-18481,K6Mn1Se4,-1.3208894207484319,0.0
mp-4419,Na1Nb1O3,-2.811382109775861,0.0
mp-652621,Br7In5,-1.0917859559375003,0.005088689687499907
mp-559710,As2In1Na1O7,-1.6582253602272734,0.0
mp-769597,Co1Ge3Li2O8,-2.1030513249404765,0.0
mp-554081,Ca2Cl1O4P1,-3.2609416047916664,0.0
mp-630641,Cl1Fe1O3Sr2,-2.6498693628571424,0.0
mp-463,F1K1,-2.917520910625,0.0
mp-541073,I1S1Sm1,-2.1191348241666668,0.0
mp-7214,Cr1N4Sr3,-1.08460575703125,0.0
mp-565447,O12Th1V4,-2.7150619808823517,0.0
mp-772938,Li2O11Ta4,-3.1872308689950963,0.027986306764713684
mp-7384,F3Sm1,-4.47009036,0.0
mp-1005754,H1O5S1Sm1,-2.525101854921875,0.0
mp-7173,Pt1Sb1Sc1,-1.307801144999999,0.0
mp-675458,La2Pb1Te4,-1.4724906952380958,0.03259814553572861
mp-752851,B2Ca2O7Si1,-3.2449090338194444,0.01449753020805685
mp-3519,O1S1Zr1,-2.814054399270835,0.0
mp-557985,K1O3P1,-2.68265745037857,0.0
mp-629430,Cr1Li2N3Sr1,-0.9602952488095237,0.0
mp-504838,Cs1P1S3,-0.8343062732827363,0.0
mp-14155,Ho1O14P5,-2.8248375987083323,0.0
mp-28421,Cs2Hg1I4,-1.28665910107143,0.0
mp-38035,C1O3Sr1,-2.677551404083333,0.0
mp-510458,C1H1N1,-0.09284654312500133,0.17165026199999864
mp-27546,Ca1Cl1F1,-3.465020995000001,0.008431994999984482
mp-5304,Al1La1O3,-3.7168315074999994,0.0
mp-541190,Cs2Li1O4V1,-2.36567374345546,0.0
mp-22950,Cl3Cs1Ni1,-1.5336339265000007,0.0
mp-23436,Br6Cs4Pb1,-1.9247488756112852,0.0
mp-757038,Bi1Li1O4Si1,-2.5259482176190473,0.023689681258661364
mp-27247,Na3Nb1O4,-2.5124877683943962,0.0
mp-3167,Ge1Hg2Se4,-0.5041013620535709,0.0
mp-765498,F3Li1O1V1,-2.911823260972223,0.006431431706131363
mp-548658,O3P1Rb1,-2.630477660416666,0.0
mp-20507,O3Pb1S1,-1.714185861499999,0.057590510749940906
mp-32113,Mo2O13P3,-2.358742567986111,0.0
mp-505603,O8Pb5S1,-1.6781223612499983,0.0
mp-772217,Er1In1O3,-2.907217907333334,0.015753188708202616
mp-14565,K3N11P6,-0.8202066956428581,0.0
mp-13926,F6Na1Rb2Y1,-3.5703714801379314,0.0
mp-27702,Cl1In1O1,-1.6229084508333333,0.0
mp-38805,Ag1Se8Sm5,-1.9384533782440474,0.027332491584819048
mp-504650,Cu1La3S7Si1,-1.9399601247916667,0.0
mp-3395,O3Se1Sr1,-2.0642218438124997,0.0
mp-18780,K2O4W1,-2.354497757499999,0.0
mp-18827,Al1O4V1,-2.797669445277778,0.0
mp-554263,B1Ca2Cl1O3,-3.2142832282738083,0.0
mp-17774,Ga1K2Li3O4,-2.0569032638499998,0.0
mp-24375,Cl4H4N1Tl1,-0.9270947363333345,0.0
mp-776108,Li1Nb1O3,-2.8704444334166666,0.0
mp-20042,In1S2Tl1,-0.7634941448958332,0.0
mp-27208,Cl3Mg1Rb1,-2.15744429075,0.0
mp-567259,Cd1I2,-0.8141442099999997,0.0
mp-775805,N2O1Zr2,-2.2572535502500015,0.0
mp-770624,Co1F1Li2O4P1,-2.5270761943055544,0.017307804152377315
mp-774404,H1Li1O10P3V1,-2.4988121700520836,0.04077998066917621
mp-704959,Cr1O7P2,-2.396440097928571,0.021448631812580034
mp-768190,C1Li3Mg1O7P1,-2.586064007664834,0.045517963460895317
mp-10971,Er1Li1O2,-3.2559599749999997,0.0
mp-557583,As2In1O7Tl1,-1.7365223176893934,0.0
mp-3996,As1Ga1O4,-1.6509973743055564,0.0
mp-697977,Al1H7Sr2,-0.5225401468333338,0.0
mp-570983,Se9Sn2Sr4,-1.4315082905208347,0.0067935547095383225
mp-19161,Ca2Co1O6W1,-2.6194438234999993,0.0
mp-4468,Cu1S2Sb1,-0.4942459828125001,0.0
mp-17154,Rb3S4Sb1,-1.1390562975000003,0.0
mp-686701,F5Nd3O2,-4.003999997333331,0.22230508366674542
mp-12307,Ge2S5Tl2,-0.6811094818518492,0.0
mp-696597,B5H9,-0.16328339434523848,0.01959365074075795
mp-11739,K1La1Te2,-1.7045287903333337,0.0
mp-695805,Fe1Li2O7P2,-2.5570182045486103,0.003312129479545215
mp-6192,Ba2Dy1O6Sb1,-3.094181018249999,0.0
mp-774745,Cu1Li3S3,-1.044645828125,0.08108476880951697
mp-763929,F5Ni3O1,-1.9961059488888884,0.06641699495370229
mp-29799,Bi1K1O3,-1.5874516433500006,0.0
mp-558879,F4O1Os1,-1.9355820422916665,0.013025646457761534
mp-775844,N2O1Zr2,-2.4433311612500006,0.0
mp-776239,N2O1Zr2,-2.240092435083334,0.0
mp-21272,Er1Ni1Sb1,-0.9982809911111067,0.0
mp-3285,Na2O11Ta4,-3.0054199543725484,0.0
mp-23996,Be1H8O8S1,-1.6357820740277778,0.0
mp-770998,Gd1O9Ta3,-3.508943749134615,0.0
mp-568863,Br3C1Eu2Li1N2,-1.7057019723148155,0.0
mp-15684,As1Cu1K2,-0.45148022124999976,0.0
mp-18337,Be3N2,-1.2173527985000014,0.0
mp-14889,Fe2K9S7,-1.2067264271354157,0.0
mp-772802,C1K2O7P1Tm1,-2.797303030761904,0.01445926804377251
mp-667379,Al64Ba7O103,-3.4453416092672415,0.0
mp-542541,Cs1F1H3O4P1,-1.9471973310476187,0.0
mp-755403,Ba2O5Sc2,-3.417964252638889,0.0
mp-771260,Hf2O7Y2,-3.8444182998863865,5.7707727264564504e-05
mp-21097,Ge1K1La1Se4,-1.4647834760535718,0.0
mp-4359,O3Pd1Sr2,-2.396073339930556,0.0
mp-770872,Cr2Li2O7,-1.8362364171969703,0.011075124886345251
mp-759408,Ag1C4F1H8N8,-0.3656409747348487,0.1008062900396755
mp-23891,H1Na1O1,-1.4489358312500003,0.0
mp-752882,Ag1F2Li1,-2.148966769375,0.0
mp-7615,F6Rb3Tl1,-2.630449112083333,0.0
mp-608014,Ge2K2O7Pb2,-1.9730855428461522,0.0
mp-680210,Ba3N4W1,-1.077248601527777,0.0
mp-3481,As1K1Sn1,-0.3964002726666666,0.0
mp-24601,Al3H3O10Si2,-2.796373505972222,0.02416451111112947
mp-600037,O2Si1,-3.0229240549999994,0.0
mp-557074,Ba1O10Pr2Ti3,-3.6442362351562494,0.0024522914061773093
mp-29236,Br1In1Te1,-0.755337140833331,0.0
mp-18112,Ge2Se5Sr2,-1.326034678894676,0.0
mp-561098,Li1O6P1U1,-3.123750116997354,0.004018925079208202
mp-763436,F1Fe1O1,-2.028594971666666,0.040905479444460845
mp-1002081,Cl1I1K1Na1,-1.833125564887931,0.07462193499997527
mp-24654,H5K1O9P2Zn1,-2.0431423424120374,0.005177075208752374
mp-7232,Cs2Hg1O2,-1.2917853096724135,0.0
mp-775564,Li2O8Ti1V3,-2.725266859464285,0.0056396167844776
mp-19148,K2Mn2O3,-1.7309918216379299,0.0
mp-643257,H4K2Pd1,-0.35756616892857196,0.0
mp-558950,Ag1As1O3,-1.2489864813333336,0.0
mp-223,Ge1O2,-1.7703659722222211,0.0
mp-549333,Bi2I1Nd1O4,-2.2929215659375,0.0
mp-28532,Br3Cr1In1,-1.0250598375000002,0.04667077172266012
mp-17651,F7Ho1Pt1,-2.816886802222222,0.0
mp-22961,Cl4Li2Zn1,-1.7143169190476197,0.012581398214286261
mp-15983,Ba2Na1Nb5O15,-3.1171170521251876,0.012012242119632293
mp-772324,Li3Mg1Ni3O8,-1.5472502056666666,0.06463572108334574
mp-604909,C1Ca4H2O11Si2,-2.9397875675625,0.004219290375001706
mp-556630,Al1As2O7Rb1,-1.990497050113637,0.0
mp-19412,Ag3O4V1,-1.2091799268749988,0.0
mp-554835,F7K1V1Zr1,-3.5733600983000002,0.0
mp-18742,Ca1O6Sr2W1,-2.9806652965000007,0.0
mp-764647,Na8O6Ti1,-1.9515879026245215,0.0605999194999832
mp-558483,I1K4Li1O6,-1.6607238477361115,0.0
mp-776730,F5Fe1Li2,-2.838315747395834,0.00872496902793074
mp-744914,Al6Ca8Mg1O28Si5,-3.0562913030208327,0.402858044062502
mp-768088,Mn2O11Si4,-2.697356471703853,0.0912424556617616
mp-573974,Cl16Hg3Tl10,-0.9970220576724151,0.009056238879311021
mp-10390,O5Ta2,-3.3465631313809516,0.0
mp-5999,O5S2Sm2Ti2,-3.291506363560607,0.0
mp-770852,Li2Ni2O5Ti1,-2.2375585958749995,0.033816068642426346
mp-772682,Dy2O9W2,-2.891744417756409,0.07028233173081971
mp-768399,Ba3Br12Y2,-2.4395761185294123,0.05638287397058949
mp-27590,B9Cs1H14,-0.2708783154346263,0.06388612807291623
mp-757480,O14Pb5Ti5,-2.6206689487152772,0.093722142291492
mp-5302,Gd2O7Ti2,-3.6063699607575757,0.007731939318196107
mp-5813,N1O1Ta1,-2.148677137027782,0.0
mp-643814,H2O5Si1Zn2,-2.0804836863749996,0.018005915083327294
mp-542168,Co1Cs2O4Si1,-2.3054131013577592,0.0
mp-767424,K1Li1O8Sb3,-1.9335712265833334,0.08985447782109081
mp-23160,Br4Th1,-2.0714889709999964,0.0
mp-541393,K3Na1O9Re2,-2.2381780366201154,0.0
mp-569410,Cl5P1,-0.6508111900793665,0.0
mp-23302,I1Rb1,-1.6715657237499997,0.0
mp-16613,Al1Au1O2,-2.2224998512499994,0.012279223124550764
mp-752754,Hf2N2O1,-2.42718663575,0.0
mp-769059,Li3Nb1S4,-1.33681276109375,0.0009539628124601851
mp-18391,O7Si2Sm2,-3.468873012500012,0.0
mp-721562,H5K2O11P3,-2.1864835366513606,0.007566940595206499
mp-772181,Cs3Ga1O3,-1.7513690342918713,0.0
mp-18274,Ba4Li1Nb3O12,-3.2073934926666667,0.0
mp-28499,Al10Ge2O19,-3.1357357197580633,0.030458996451613526
mp-772323,Cr4Li2O13,-1.7307105751535083,0.013997742171054628
mp-17769,F1O4S1Y1,-2.9837600396130943,0.00691454571441698
mp-558317,K1Na1Nb1O5Pr1,-2.9901385791995554,0.0
mp-504605,H16Na2O11Si1,-1.3492707117500051,0.011193952249963009
mp-707905,H7N2O3P1,-1.1554135811263733,0.05006602778869862
mp-770669,Cr1Li24Mn11O36,-2.1815952812116857,0.0022740515971359323
mp-17410,Cs1Er3Se5,-2.0941393973748776,0.0
mp-661,Al1N1,-1.5843970050000005,0.0
mp-549697,Ge1I1O6Rb1,-1.523038264166666,0.0
mp-5492,Al2O4Sr1,-3.4504195602380943,0.0
mp-30890,Hg3O6S1,-1.1850924298333334,0.0
mp-755107,Dy2O5Ti1,-3.676978365208317,0.0
mp-601302,Gd1H9O11P2,-2.0162164381702894,0.04243378195649374
mp-761931,Na8O6Sn1,-1.5882496233333323,0.004825099333270799
mp-27723,O5Se1U1,-2.565797252299107,0.015656836964298395
mp-552992,Bi2Br1Dy1O4,-2.4364698252083326,0.0
mp-29991,Bi2Cl7Te4,-0.9727834192628202,0.0029032552212383458
mp-14624,Au1K5P2,-0.491352169337798,0.0
mp-600065,O2Si1,-3.0206839768055556,0.0
mp-28608,Ga3I1Te3,-0.6534692860714283,0.0
mp-768152,C1Na1O7P1Zr1,-2.730472616911106,0.0393546609994589
mp-752437,In1O3Sm1,-2.7805369608749997,0.030626408874976363
mp-10550,Mg2N2Sr1,-0.8400300053333339,0.0
mp-756459,Cs3O3Tm1,-2.176126688214286,0.0
mp-766954,F5Li1V1,-3.092932661904762,0.001775361071415103
mp-28295,Cs1I1O3,-1.3861340458362073,0.0
mp-771049,B1Co1Li2O4,-2.1392983235416656,0.05346607312450402
mp-768873,Ge1O5Y2,-3.204970628750001,0.0
mp-556498,B2Be2O7Sr2,-3.1676081254487176,0.00545533038466481
mp-768053,C1Fe1Na2O7P1,-2.2450190814738984,0.0
mp-557672,Ga2Pb2S5,-0.9037696177083332,0.011828013472221757
mp-616196,C3I2O3Os1,-0.9343884209722231,0.045148126736112855
mp-675376,Ag1Ho1Se2,-1.392939750338539,0.0
mp-755421,Ca6Hf1O8,-3.3840309086666687,0.00230986949998974
mp-12315,B1Dy1O3,-3.521426776166664,0.0
mp-652663,K2Pt1S15,-0.689566531548611,0.0
mp-17389,Ag1Pr3Se7Si1,-1.6154575352560763,0.0
mp-758317,O9Ta3Y1,-3.272986781307743,0.0
mp-703348,H1O11P3U1,-2.736434796026783,0.0
mp-557761,Ba4K1O1Sb3,-1.4561759935277776,0.0
mp-767149,Fe1Li2O8Si3,-2.7875631086904753,0.07555973053565472
mp-557070,As1Bi1Ca2O6,-2.5427636002499994,0.0
mp-554315,B2Be1Ca1O5,-3.119299800787036,0.00425434144622293
mp-770533,Li6Mn1O4,-2.051271598902822,0.0
mp-24591,H2O4Se1Zn1,-1.396379455605468,0.020624165156259755
mp-557993,Bi1O2,-1.4734107083333328,0.0
mp-27743,Bi1F5,-2.137601312083334,0.0
mp-707311,H3O5P1Zn1,-1.6855481099851184,0.01116227035413111
mp-546082,Bi2Cl1O4Tm1,-2.491652215000001,0.0
mp-776032,Ba2I7Y1,-1.9052803074166664,0.031066457500000054
mp-540818,Ge2Se5Tl2,-0.6125987059317128,0.0
mp-607987,Cs1I4In1,-1.195704144238506,0.0
mp-23748,B1H1Mg1O3,-2.601834914236111,0.0
mp-28237,Br2Li1Rb1,-1.9323322144791675,0.004812353750000442
mp-777525,F4Fe1Li1,-2.7727870322222223,0.002276242685136154
mp-15788,Li1S2Y1,-2.0994184215624996,0.0
mp-685150,F2Pb1,-2.6794493449999996,0.0
mp-759848,Bi4F2O5,-1.9065533099999996,0.055780596818172316
mp-754710,Ca1I6Sr2,-1.9336167737037036,0.02224016625499677
mp-1244,Ge2Sr1,-0.4822718343055552,0.0
mp-762390,Li1O10V5,-2.419973037552083,0.07175552166666677
mp-22867,Br1Rb1,-2.0454985206249994,0.0
mp-623092,Au2Gd4O9,-2.804567977916666,0.0
mp-567967,Ga1I4Li1,-1.0389751526388877,0.0
mp-775306,Fe1Li2O8Ti3,-2.9980033920833327,0.0
mp-542164,Ag3Cs1Se5Tb2,-1.3391602167863441,0.0
mp-24072,Ag1H5O9S2,-1.4462239763480393,0.0
mp-568544,Cd1Cl3Cs1,-1.7030874435000016,0.0
mp-542300,B8Na2O13,-2.801438131677911,0.0
mp-753968,Li2S4W1,-1.1232322395238086,0.031913129489796334
mp-755617,Ho1Na1O2,-3.1265330731249996,0.0
mp-35925,Ni1O2,-0.6846903050000002,0.08943759472222042
mp-694855,Li2Mo1O3,-2.2270743055555555,0.0
mp-568970,Cl8Ir1K3Sn1,-1.7091850072307695,0.03454217060187158
mp-21699,Ba1In2La2O7,-2.9305651323611106,0.004692586249974558
mp-683972,Ag4C8Cs5I1N8,-0.23948789870468673,0.13351279751602657
mp-504880,C1Ca1H12O9,-1.5609230804891308,0.027434370217412955
mp-554903,Cl1O3Se1Tb1,-2.4842318677517348,0.0
mp-560732,Ba1F7Na1Zr1,-3.92788265213793,0.0
mp-7670,K2Se3,-1.08227908160625,0.0
mp-770400,Al1Li2Ni1O4,-2.1977341839583335,0.07236528718768653
mp-12933,O4Ta1Tm1,-3.6125572253888882,0.0
mp-541014,Cs3I9Sb2,-1.1807559899261122,0.0
mp-684109,Bi1Li1O7P2,-2.504339134204545,0.008196213030155648
mp-11107,Ac2O3,-3.73843166625,0.0
mp-774432,K2Li3Ni1O4,-1.6679114426,0.0
mp-30056,Br3Ca1Cs1,-2.356895221586207,0.0
mp-755240,As1Au1O3,-1.0782027382499997,0.11876925566666419
mp-10782,Rb1Se2Tb1,-1.9688267805468742,0.0
mp-631545,B1Br2Li1,0.41012834187500014,1.6783554186776515
mp-558078,F6Fe1Na1Rb2,-2.951094234655172,0.0
mp-19097,B1Fe1O3,-2.1015575654999994,0.0
mp-766947,O3P1Sn1,-2.4284267949206213,0.3098804222143009
mp-3932,Ca3O7Si2,-3.4566509486458323,0.0023865537500409317
mp-12491,Cd1Cs1La1Te3,-1.3874009266666623,0.0
mp-12622,F4Pd1Sr1,-2.8659209049999945,0.0
mp-19140,K3Mn1O4,-1.852439644154095,0.0
mp-28048,Br4K1Tl1,-1.166712797708333,0.0
mp-767927,Cr4Li4O18Ti1V4,-2.471774952795699,0.08113098255576198
mp-776782,Ba6I15Y1,-1.9714703194318184,0.05184929500000024
mp-20282,Cs1F3Pb1,-2.784892366431033,0.0
mp-676816,F8La2Pb1,-3.9681562500000003,0.030703663030333995
mp-775300,Co1Na3O3,-1.5264352798768468,0.0
mp-675620,Nd2Pb1S4,-1.8781878274999997,0.032442368571373184
mp-18293,O7P2Si1,-2.5187835670952365,0.0
mp-19390,O3W1,-2.1799421331249986,0.0
mp-766448,F1H1Na1O4P1Sn1,-2.320260555542784,0.01519297340899565
mp-766597,Li4S12Ti5,-1.5195540948809527,0.07053313798940966
mp-532105,O2Si1,-3.2563277579320986,0.0
mp-774527,Na2O25Ti12,-3.3898505242373997,0.008634088077020608
mp-23333,Cl4Hg3O1,-0.6108816484374984,0.0009174021875012484
mp-542069,Cs8O19Ta6,-2.7746729536060624,0.0
mp-561084,Al2Nd4O9,-3.7135577459999998,0.0
mp-29237,Se3Sn1Tl2,-0.6365626883246526,0.0
mp-556229,F5Li2Mn1,-2.9982286146372132,0.0
mp-768479,O3Sc1Y1,-3.8554694862499987,0.019660497916627405
mp-771089,Fe5Li4Mn1O12,-1.76913971914838,0.11434652235800578
mp-510625,Cr1Cu1O2,-1.7854557968750004,0.0
mp-755740,Ho1O3Tb1,-3.8404037898749976,0.09567953537495555
mp-556756,K1O8P1Sb2,-2.2159145364077375,0.0
mp-697038,Ba2H6Ru1,-0.6514673119444454,0.0
mp-556637,Ba6Na2Nb2O17P2,-2.996164852446633,0.0
mp-754093,Cd1Gd2O4,-3.0935712371428576,0.08150087142855662
mp-540415,Li1Mn1O7P2,-2.535913024595463,0.0
mp-554741,Er1K1P2S7,-1.2041637692310607,0.0
mp-558795,K1Mg1O4P1,-2.9067579984846925,0.0
mp-28400,P3Ru1,-0.5918264747321427,0.0
mp-570572,C3N4,0.14726764821428567,0.07842202096142817
mp-774752,Li2Mg1O8Ti3,-3.2395984185119033,0.0
mp-20940,Cd1O3Ti1,-2.501344651833334,0.0
mp-23955,Cu1H2O5Se1,-1.114410266927084,0.0
mp-776064,F1Li2O4P1V1,-2.7465709237499993,0.012902698669200734
mp-554887,K1Nb1O6U1,-3.228345758944444,0.0023239370138475757
mp-606604,Cs1F3Li2,-3.003849275349617,0.057751487499998554
mp-2943,F10K1Y3,-4.254947551232143,0.0
mp-768776,B2Bi1Li1O5,-2.4221306489351844,0.044938826246124504
mp-14232,B1Li1O2,-2.7540031799999998,0.0
mp-555212,Ba2Br1In1O3,-2.5714782005952377,0.0
mp-29447,Bi3Br1O4,-1.638988404374997,0.0
mp-653954,Cs2Re2S5,-1.0677335814615252,0.00499569950747119
mp-634431,C1H1K1O3,-1.8864995402916669,0.0
mp-18506,F7Sm1Zr1,-4.202579321666666,0.0
mp-641112,F3O2Re1,-2.3960490373958323,0.0
mp-23309,Cl3Sc1,-2.343001440624999,0.0
mp-680555,Ga1Se2Tl1,-0.6874643145312476,0.0